 Entering Gaussian System, Link 0=g09
 Input=EDO.gjf
 Output=EDO.log
 Initial command:
 /share/apps/gaussian/g09d01/intel/g09/l1.exe "/scratch/yl66/H2/small/Gau-31273.inp" -scrdir="/scratch/yl66/H2/small/"
 Entering Link 1 = /share/apps/gaussian/g09d01/intel/g09/l1.exe PID=     31274.
  
 Copyright (c) 1988,1990,1992,1993,1995,1998,2003,2009,2013,
            Gaussian, Inc.  All Rights Reserved.
  
 This is part of the Gaussian(R) 09 program.  It is based on
 the Gaussian(R) 03 system (copyright 2003, Gaussian, Inc.),
 the Gaussian(R) 98 system (copyright 1998, Gaussian, Inc.),
 the Gaussian(R) 94 system (copyright 1995, Gaussian, Inc.),
 the Gaussian 92(TM) system (copyright 1992, Gaussian, Inc.),
 the Gaussian 90(TM) system (copyright 1990, Gaussian, Inc.),
 the Gaussian 88(TM) system (copyright 1988, Gaussian, Inc.),
 the Gaussian 86(TM) system (copyright 1986, Carnegie Mellon
 University), and the Gaussian 82(TM) system (copyright 1983,
 Carnegie Mellon University). Gaussian is a federally registered
 trademark of Gaussian, Inc.
  
 This software contains proprietary and confidential information,
 including trade secrets, belonging to Gaussian, Inc.
  
 This software is provided under written license and may be
 used, copied, transmitted, or stored only in accord with that
 written license.
  
 The following legend is applicable only to US Government
 contracts under FAR:
  
                    RESTRICTED RIGHTS LEGEND
  
 Use, reproduction and disclosure by the US Government is
 subject to restrictions as set forth in subparagraphs (a)
 and (c) of the Commercial Computer Software - Restricted
 Rights clause in FAR 52.227-19.
  
 Gaussian, Inc.
 340 Quinnipiac St., Bldg. 40, Wallingford CT 06492
  
  
 ---------------------------------------------------------------
 Warning -- This program may not be used in any manner that
 competes with the business of Gaussian, Inc. or will provide
 assistance to any competitor of Gaussian, Inc.  The licensee
 of this program is prohibited from giving any competitor of
 Gaussian, Inc. access to this program.  By using this program,
 the user acknowledges that Gaussian, Inc. is engaged in the
 business of creating and licensing software in the field of
 computational chemistry and represents and warrants to the
 licensee that it is not a competitor of Gaussian, Inc. and that
 it will not use this program in any manner prohibited above.
 ---------------------------------------------------------------
  

 Cite this work as:
 Gaussian 09, Revision D.01,
 M. J. Frisch, G. W. Trucks, H. B. Schlegel, G. E. Scuseria, 
 M. A. Robb, J. R. Cheeseman, G. Scalmani, V. Barone, B. Mennucci, 
 G. A. Petersson, H. Nakatsuji, M. Caricato, X. Li, H. P. Hratchian, 
 A. F. Izmaylov, J. Bloino, G. Zheng, J. L. Sonnenberg, M. Hada, 
 M. Ehara, K. Toyota, R. Fukuda, J. Hasegawa, M. Ishida, T. Nakajima, 
 Y. Honda, O. Kitao, H. Nakai, T. Vreven, J. A. Montgomery, Jr., 
 J. E. Peralta, F. Ogliaro, M. Bearpark, J. J. Heyd, E. Brothers, 
 K. N. Kudin, V. N. Staroverov, T. Keith, R. Kobayashi, J. Normand, 
 K. Raghavachari, A. Rendell, J. C. Burant, S. S. Iyengar, J. Tomasi, 
 M. Cossi, N. Rega, J. M. Millam, M. Klene, J. E. Knox, J. B. Cross, 
 V. Bakken, C. Adamo, J. Jaramillo, R. Gomperts, R. E. Stratmann, 
 O. Yazyev, A. J. Austin, R. Cammi, C. Pomelli, J. W. Ochterski, 
 R. L. Martin, K. Morokuma, V. G. Zakrzewski, G. A. Voth, 
 P. Salvador, J. J. Dannenberg, S. Dapprich, A. D. Daniels, 
 O. Farkas, J. B. Foresman, J. V. Ortiz, J. Cioslowski, 
 and D. J. Fox, Gaussian, Inc., Wallingford CT, 2013.
 
 ******************************************
 Gaussian 09:  ES64L-G09RevD.01 24-Apr-2013
                20-Mar-2016 
 ******************************************
 %nproc=8
 Will use up to    8 processors via shared memory.
 %mem=8GB
 %chk=edo.chk
 ----------------------------------------------------------------------
 # B3LYP/6-31G* OPT=(calcall,tight,MaxCyc=200) SCF=tight integral=(grid
 =fine)
 ----------------------------------------------------------------------
 1/6=200,7=10,10=4,14=-1,18=20,19=15,26=3,38=1/1,3;
 2/9=110,12=2,17=6,18=5,40=1/2;
 3/5=1,6=6,7=1,11=2,16=1,25=1,30=1,71=2,74=-5,75=-4,140=1/1,2,3;
 4//1;
 5/5=2,32=2,38=5/2;
 8/6=4,10=90,11=11/1;
 11/6=1,8=1,9=11,15=111,16=1/1,2,10;
 10/6=1/2;
 6/7=2,8=2,9=2,10=2,18=1,28=1/1;
 7/10=1,25=1/1,2,3,16;
 1/6=200,7=10,10=4,14=-1,18=20,19=15,26=3/3(3);
 2/9=110/2;
 7/8=1,9=1,25=1,44=-1/16;
 99//99;
 2/9=110/2;
 3/5=1,6=6,7=1,11=2,16=1,25=1,30=1,71=2,74=-5,75=-4,140=1/1,2,3;
 4/5=5,16=3,69=1/1;
 5/5=2,32=2,38=5/2;
 8/6=4,10=90,11=11/1;
 11/6=1,8=1,9=11,15=111,16=1/1,2,10;
 10/6=1/2;
 7/10=1,25=1/1,2,3,16;
 1/6=200,7=10,10=4,14=-1,18=20,19=15,26=3/3(-8);
 2/9=110/2;
 6/7=2,8=2,9=2,10=2,18=1,19=2,28=1/1;
 7/8=1,9=1,25=1,44=-1/16;
 99//99;
 ----------
 Title: EDO
 ----------
 Symbolic Z-matrix:
 Charge =  0 Multiplicity = 1
 C                    -13.852    6.223     28.649 
 O                    -14.976    5.767     27.895 
 C                    -12.661    5.329     28.485 
 O                    -12.981    4.012     28.912 
 H                    -14.093    6.263     29.588 
 H                    -13.619    7.12      28.362 
 H                    -14.781    5.744     27.099 
 H                    -12.39     5.314     27.554 
 H                    -11.921    5.672     29.01 
 H                    -13.601    3.722     28.46 
 

 GradGradGradGradGradGradGradGradGradGradGradGradGradGradGradGradGradGrad
 Berny optimization.
 Initialization pass.
                           ----------------------------
                           !    Initial Parameters    !
                           ! (Angstroms and Degrees)  !
 --------------------------                            --------------------------
 ! Name  Definition              Value          Derivative Info.                !
 --------------------------------------------------------------------------------
 ! R1    R(1,2)                  1.4282         calculate D2E/DX2 analytically  !
 ! R2    R(1,3)                  1.4982         calculate D2E/DX2 analytically  !
 ! R3    R(1,5)                  0.9703         calculate D2E/DX2 analytically  !
 ! R4    R(1,6)                  0.9702         calculate D2E/DX2 analytically  !
 ! R5    R(2,7)                  0.8199         calculate D2E/DX2 analytically  !
 ! R6    R(3,4)                  1.421          calculate D2E/DX2 analytically  !
 ! R7    R(3,8)                  0.9698         calculate D2E/DX2 analytically  !
 ! R8    R(3,9)                  0.97           calculate D2E/DX2 analytically  !
 ! R9    R(4,10)                 0.8202         calculate D2E/DX2 analytically  !
 ! A1    A(2,1,3)              112.1673         calculate D2E/DX2 analytically  !
 ! A2    A(2,1,5)              109.184          calculate D2E/DX2 analytically  !
 ! A3    A(2,1,6)              109.1489         calculate D2E/DX2 analytically  !
 ! A4    A(3,1,5)              109.1471         calculate D2E/DX2 analytically  !
 ! A5    A(3,1,6)              109.1719         calculate D2E/DX2 analytically  !
 ! A6    A(5,1,6)              107.9282         calculate D2E/DX2 analytically  !
 ! A7    A(1,2,7)              109.5323         calculate D2E/DX2 analytically  !
 ! A8    A(1,3,4)              109.9459         calculate D2E/DX2 analytically  !
 ! A9    A(1,3,8)              109.662          calculate D2E/DX2 analytically  !
 ! A10   A(1,3,9)              109.6464         calculate D2E/DX2 analytically  !
 ! A11   A(4,3,8)              109.6991         calculate D2E/DX2 analytically  !
 ! A12   A(4,3,9)              109.6878         calculate D2E/DX2 analytically  !
 ! A13   A(8,3,9)              108.1732         calculate D2E/DX2 analytically  !
 ! A14   A(3,4,10)             109.4089         calculate D2E/DX2 analytically  !
 ! D1    D(3,1,2,7)            -59.8598         calculate D2E/DX2 analytically  !
 ! D2    D(5,1,2,7)            179.0257         calculate D2E/DX2 analytically  !
 ! D3    D(6,1,2,7)             61.262          calculate D2E/DX2 analytically  !
 ! D4    D(2,1,3,4)            -59.3943         calculate D2E/DX2 analytically  !
 ! D5    D(2,1,3,8)             61.3001         calculate D2E/DX2 analytically  !
 ! D6    D(2,1,3,9)            179.9352         calculate D2E/DX2 analytically  !
 ! D7    D(5,1,3,4)             61.7416         calculate D2E/DX2 analytically  !
 ! D8    D(5,1,3,8)           -177.5641         calculate D2E/DX2 analytically  !
 ! D9    D(5,1,3,9)            -58.9289         calculate D2E/DX2 analytically  !
 ! D10   D(6,1,3,4)            179.4972         calculate D2E/DX2 analytically  !
 ! D11   D(6,1,3,8)            -59.8084         calculate D2E/DX2 analytically  !
 ! D12   D(6,1,3,9)             58.8267         calculate D2E/DX2 analytically  !
 ! D13   D(1,3,4,10)            60.0258         calculate D2E/DX2 analytically  !
 ! D14   D(8,3,4,10)           -60.6462         calculate D2E/DX2 analytically  !
 ! D15   D(9,3,4,10)          -179.3287         calculate D2E/DX2 analytically  !
 --------------------------------------------------------------------------------
 Trust Radius=3.00D-01 FncErr=1.00D-07 GrdErr=1.00D-06
 Number of steps in this run=    100 maximum allowed number of steps=    100.
 GradGradGradGradGradGradGradGradGradGradGradGradGradGradGradGradGradGrad

                          Input orientation:                          
 ---------------------------------------------------------------------
 Center     Atomic      Atomic             Coordinates (Angstroms)
 Number     Number       Type             X           Y           Z
 ---------------------------------------------------------------------
      1          6           0      -13.852000    6.223000   28.649000
      2          8           0      -14.976000    5.767000   27.895000
      3          6           0      -12.661000    5.329000   28.485000
      4          8           0      -12.981000    4.012000   28.912000
      5          1           0      -14.093000    6.263000   29.588000
      6          1           0      -13.619000    7.120000   28.362000
      7          1           0      -14.781000    5.744000   27.099000
      8          1           0      -12.390000    5.314000   27.554000
      9          1           0      -11.921000    5.672000   29.010000
     10          1           0      -13.601000    3.722000   28.460000
 ---------------------------------------------------------------------
                    Distance matrix (angstroms):
                    1          2          3          4          5
     1  C    0.000000
     2  O    1.428225   0.000000
     3  C    1.498203   2.428820   0.000000
     4  O    2.390885   2.845055   1.420992   0.000000
     5  H    0.970259   1.972804   2.034598   2.600100   0.000000
     6  H    0.970189   1.972346   2.034840   3.220125   1.569140
     7  H    1.869487   0.819860   2.566636   3.086550   2.633975
     8  H    2.040282   2.647430   0.969756   1.971966   2.817440
     9  H    2.040265   3.253502   0.969987   1.972005   2.323994
    10  H    2.520659   2.528216   1.861901   0.820246   2.823319
                    6          7          8          9         10
     6  H    0.000000
     7  H    2.199725   0.000000
     8  H    2.329150   2.471600   0.000000
     9  H    2.323750   3.440451   1.571006   0.000000
    10  H    3.399461   2.707989   2.195865   2.631995   0.000000
 Stoichiometry    C2H6O2
 Framework group  C1[X(C2H6O2)]
 Deg. of freedom    24
 Full point group                 C1      NOp   1
 Largest Abelian subgroup         C1      NOp   1
 Largest concise Abelian subgroup C1      NOp   1
                         Standard orientation:                         
 ---------------------------------------------------------------------
 Center     Atomic      Atomic             Coordinates (Angstroms)
 Number     Number       Type             X           Y           Z
 ---------------------------------------------------------------------
      1          6           0        0.670845    0.593218   -0.281808
      2          8           0        1.410053   -0.582291    0.052227
      3          6           0       -0.711402    0.574970    0.295837
      4          8           0       -1.424603   -0.554325   -0.189195
      5          1           0        0.611308    0.668800   -1.247285
      6          1           0        1.144602    1.372109    0.050080
      7          1           0        1.474138   -0.643422    0.867289
      8          1           0       -0.660177    0.538310    1.263545
      9          1           0       -1.179094    1.387881    0.048220
     10          1           0       -1.031042   -1.239882    0.029723
 ---------------------------------------------------------------------
 Rotational constants (GHZ):     16.0192144      5.6744935      4.6985394
 Standard basis: 6-31G(d) (6D, 7F)
 There are    72 symmetry adapted cartesian basis functions of A   symmetry.
 There are    72 symmetry adapted basis functions of A   symmetry.
    72 basis functions,   136 primitive gaussians,    72 cartesian basis functions
    17 alpha electrons       17 beta electrons
       nuclear repulsion energy       137.7212919278 Hartrees.
 NAtoms=   10 NActive=   10 NUniq=   10 SFac= 1.00D+00 NAtFMM=   60 NAOKFM=F Big=F
 Integral buffers will be    131072 words long.
 Raffenetti 2 integral format.
 Two-electron integral symmetry is turned on.
 One-electron integrals computed using PRISM.
 NBasis=    72 RedAO= T EigKep=  4.53D-03  NBF=    72
 NBsUse=    72 1.00D-06 EigRej= -1.00D+00 NBFU=    72
 ExpMin= 1.61D-01 ExpMax= 5.48D+03 ExpMxC= 8.25D+02 IAcc=2 IRadAn=         4 AccDes= 0.00D+00
 Harris functional with IExCor=  402 and IRadAn=       4 diagonalized for initial guess.
 HarFok:  IExCor=  402 AccDes= 0.00D+00 IRadAn=         4 IDoV= 1 UseB2=F ITyADJ=14
 ICtDFT=  3500011 ScaDFX=  1.000000  1.000000  1.000000  1.000000
 FoFCou: FMM=F IPFlag=           0 FMFlag=      100000 FMFlg1=           0
         NFxFlg=           0 DoJE=T BraDBF=F KetDBF=T FulRan=T
         wScrn=  0.000000 ICntrl=     500 IOpCl=  0 I1Cent=   200000004 NGrid=           0
         NMat0=    1 NMatS0=      1 NMatT0=    0 NMatD0=    1 NMtDS0=    0 NMtDT0=    0
 Petite list used in FoFCou.
 Keep R1 ints in memory in canonical form, NReq=4383746.
 Requested convergence on RMS density matrix=1.00D-08 within 128 cycles.
 Requested convergence on MAX density matrix=1.00D-06.
 Requested convergence on             energy=1.00D-06.
 No special actions if energy rises.
 Integral accuracy reduced to 1.0D-05 until final iterations.
 Initial convergence to 1.0D-05 achieved.  Increase integral accuracy.
 SCF Done:  E(RB3LYP) =  -230.127320259     A.U. after   12 cycles
            NFock= 12  Conv=0.39D-08     -V/T= 2.0015
 DoSCS=F DFT=T ScalE2(SS,OS)=  1.000000  1.000000
 Range of M.O.s used for correlation:     1    72
 NBasis=    72 NAE=    17 NBE=    17 NFC=     0 NFV=     0
 NROrb=     72 NOA=    17 NOB=    17 NVA=    55 NVB=    55
 Symmetrizing basis deriv contribution to polar:
 IMax=3 JMax=2 DiffMx= 0.00D+00
 G2DrvN: will do    11 centers at a time, making    1 passes.
 Calling FoFCou, ICntrl=  3107 FMM=F I1Cent=   0 AccDes= 0.00D+00.
 End of G2Drv F.D. properties file   721 does not exist.
 End of G2Drv F.D. properties file   722 does not exist.
 End of G2Drv F.D. properties file   788 does not exist.
          IDoAtm=1111111111
          Differentiating once with respect to electric field.
                with respect to dipole field.
          Differentiating once with respect to nuclear coordinates.
 Keep R1 ints in memory in canonical form, NReq=4349966.
          There are    33 degrees of freedom in the 1st order CPHF.  IDoFFX=6 NUNeed=     3.
     30 vectors produced by pass  0 Test12= 2.83D-15 3.03D-09 XBig12= 1.28D+01 1.12D+00.
 AX will form    30 AO Fock derivatives at one time.
     30 vectors produced by pass  1 Test12= 2.83D-15 3.03D-09 XBig12= 8.13D-01 2.15D-01.
     30 vectors produced by pass  2 Test12= 2.83D-15 3.03D-09 XBig12= 1.03D-02 2.90D-02.
     30 vectors produced by pass  3 Test12= 2.83D-15 3.03D-09 XBig12= 2.08D-05 9.02D-04.
     30 vectors produced by pass  4 Test12= 2.83D-15 3.03D-09 XBig12= 1.85D-08 2.28D-05.
     12 vectors produced by pass  5 Test12= 2.83D-15 3.03D-09 XBig12= 9.24D-12 5.52D-07.
      3 vectors produced by pass  6 Test12= 2.83D-15 3.03D-09 XBig12= 3.97D-15 8.65D-09.
 InvSVY:  IOpt=1 It=  1 EMax= 4.00D-15
 Solved reduced A of dimension   165 with    33 vectors.
 Isotropic polarizability for W=    0.000000       24.82 Bohr**3.
 End of Minotr F.D. properties file   721 does not exist.
 End of Minotr F.D. properties file   722 does not exist.
 End of Minotr F.D. properties file   788 does not exist.

 **********************************************************************

            Population analysis using the SCF density.

 **********************************************************************

 Orbital symmetries:
       Occupied  (A) (A) (A) (A) (A) (A) (A) (A) (A) (A) (A) (A)
                 (A) (A) (A) (A) (A)
       Virtual   (A) (A) (A) (A) (A) (A) (A) (A) (A) (A) (A) (A)
                 (A) (A) (A) (A) (A) (A) (A) (A) (A) (A) (A) (A)
                 (A) (A) (A) (A) (A) (A) (A) (A) (A) (A) (A) (A)
                 (A) (A) (A) (A) (A) (A) (A) (A) (A) (A) (A) (A)
                 (A) (A) (A) (A) (A) (A) (A)
 The electronic state is 1-A.
 Alpha  occ. eigenvalues --  -19.13292 -19.11891 -10.20517 -10.20465  -1.06145
 Alpha  occ. eigenvalues --   -1.03810  -0.77764  -0.66940  -0.54370  -0.51922
 Alpha  occ. eigenvalues --   -0.47264  -0.46330  -0.41865  -0.34736  -0.33370
 Alpha  occ. eigenvalues --   -0.29239  -0.26069
 Alpha virt. eigenvalues --    0.08491   0.13476   0.15227   0.17381   0.19175
 Alpha virt. eigenvalues --    0.19578   0.22102   0.24237   0.26438   0.52639
 Alpha virt. eigenvalues --    0.54403   0.57379   0.58109   0.64623   0.65927
 Alpha virt. eigenvalues --    0.88730   0.89147   0.92869   0.93880   0.95939
 Alpha virt. eigenvalues --    0.98279   1.00448   1.02846   1.07367   1.08318
 Alpha virt. eigenvalues --    1.11835   1.15530   1.19894   1.33709   1.42737
 Alpha virt. eigenvalues --    1.46837   1.49741   1.63506   1.68795   1.70884
 Alpha virt. eigenvalues --    1.81319   1.83462   1.94117   2.09777   2.11898
 Alpha virt. eigenvalues --    2.14135   2.19188   2.33966   2.36485   2.50455
 Alpha virt. eigenvalues --    2.54961   2.63743   2.70783   2.71767   2.88130
 Alpha virt. eigenvalues --    2.89541   3.76434   3.81254   4.26720   4.45574
          Condensed to atoms (all electrons):
               1          2          3          4          5          6
     1  C    4.814927   0.293123   0.387986  -0.048674   0.390268   0.342840
     2  O    0.293123   8.178031  -0.046275  -0.005171  -0.037009  -0.039028
     3  C    0.387986  -0.046275   4.813307   0.296465  -0.038785  -0.047085
     4  O   -0.048674  -0.005171   0.296465   8.174430   0.001907   0.005900
     5  H    0.390268  -0.037009  -0.038785   0.001907   0.553851  -0.051376
     6  H    0.342840  -0.039028  -0.047085   0.005900  -0.051376   0.655981
     7  H   -0.034596   0.265726  -0.001511   0.000233   0.007801  -0.004484
     8  H   -0.049312  -0.005216   0.368707  -0.040805   0.009952  -0.002249
     9  H   -0.032029   0.004899   0.365917  -0.033857  -0.006265   0.004775
    10  H   -0.008336   0.018635  -0.036889   0.268912  -0.001568   0.000872
               7          8          9         10
     1  C   -0.034596  -0.049312  -0.032029  -0.008336
     2  O    0.265726  -0.005216   0.004899   0.018635
     3  C   -0.001511   0.368707   0.365917  -0.036889
     4  O    0.000233  -0.040805  -0.033857   0.268912
     5  H    0.007801   0.009952  -0.006265  -0.001568
     6  H   -0.004484  -0.002249   0.004775   0.000872
     7  H    0.376717   0.004780  -0.000092  -0.000478
     8  H    0.004780   0.645662  -0.056871  -0.005793
     9  H   -0.000092  -0.056871   0.587631   0.009126
    10  H   -0.000478  -0.005793   0.009126   0.369313
 Mulliken charges:
               1
     1  C   -0.056196
     2  O   -0.627716
     3  C   -0.061838
     4  O   -0.619342
     5  H    0.171223
     6  H    0.133853
     7  H    0.385903
     8  H    0.131145
     9  H    0.156765
    10  H    0.386204
 Sum of Mulliken charges =  -0.00000
 Mulliken charges with hydrogens summed into heavy atoms:
               1
     1  C    0.248879
     2  O   -0.241813
     3  C    0.226072
     4  O   -0.233138
 APT charges:
               1
     1  C    0.405120
     2  O   -0.632797
     3  C    0.400161
     4  O   -0.638805
     5  H    0.004401
     6  H   -0.053149
     7  H    0.277839
     8  H   -0.060415
     9  H   -0.002041
    10  H    0.299688
 Sum of APT charges =   0.00000
 APT charges with hydrogens summed into heavy atoms:
               1
     1  C    0.356372
     2  O   -0.354959
     3  C    0.337705
     4  O   -0.339118
 Electronic spatial extent (au):  <R**2>=            289.0478
 Charge=             -0.0000 electrons
 Dipole moment (field-independent basis, Debye):
    X=              0.7831    Y=              1.1941    Z=              1.9051  Tot=              2.3809
 Quadrupole moment (field-independent basis, Debye-Ang):
   XX=            -29.4730   YY=            -21.8218   ZZ=            -22.3575
   XY=              0.3843   XZ=              0.9721   YZ=             -1.7861
 Traceless Quadrupole moment (field-independent basis, Debye-Ang):
   XX=             -4.9222   YY=              2.7290   ZZ=              2.1932
   XY=              0.3843   XZ=              0.9721   YZ=             -1.7861
 Octapole moment (field-independent basis, Debye-Ang**2):
  XXX=              4.5846  YYY=             -6.2893  ZZZ=              1.6464  XYY=             -2.7278
  XXY=              2.3743  XXZ=              4.9815  XZZ=              3.2881  YZZ=             -1.8830
  YYZ=              1.1419  XYZ=             -1.1557
 Hexadecapole moment (field-independent basis, Debye-Ang**3):
 XXXX=           -224.0099 YYYY=            -78.5815 ZZZZ=            -38.5271 XXXY=             -2.6866
 XXXZ=              6.2254 YYYX=              3.5333 YYYZ=             -1.7304 ZZZX=              3.2319
 ZZZY=             -2.3355 XXYY=            -45.9430 XXZZ=            -37.9906 YYZZ=            -20.2992
 XXYZ=             -3.7442 YYXZ=              2.0552 ZZXY=             -1.6472
 N-N= 1.377212919278D+02 E-N=-8.159417282549D+02  KE= 2.297737062437D+02
  Exact polarizability:  26.098  -0.079  25.920   0.442  -0.264  22.452
 Approx polarizability:  32.307  -0.366  34.123   1.281  -0.106  29.228
 Calling FoFJK, ICntrl=    100127 FMM=F ISym2X=0 I1Cent= 0 IOpClX= 0 NMat=1 NMatS=1 NMatT=0.
 ***** Axes restored to original set *****
 -------------------------------------------------------------------
 Center     Atomic                   Forces (Hartrees/Bohr)
 Number     Number              X              Y              Z
 -------------------------------------------------------------------
      1        6          -0.002791718   -0.091282824   -0.077437536
      2        8          -0.063079293   -0.000593674    0.246725463
      3        6          -0.118294801   -0.049406891    0.041853447
      4        8           0.196856690    0.081545184    0.143773234
      5        1          -0.036526006    0.000075983    0.110680955
      6        1           0.029015659    0.113168478   -0.035564309
      7        1           0.059995407   -0.004033720   -0.242783007
      8        1           0.035277031   -0.001432669   -0.117724644
      9        1           0.089552788    0.035747361    0.067817963
     10        1          -0.190005757   -0.083787228   -0.137341565
 -------------------------------------------------------------------
 Cartesian Forces:  Max     0.246725463 RMS     0.107314845
 FormGI is forming the generalized inverse of G from B-inverse, IUseBI=4.

 GradGradGradGradGradGradGradGradGradGradGradGradGradGradGradGradGradGrad
 Berny optimization.
 Internal  Forces:  Max     0.250102385 RMS     0.069326775
 Search for a local minimum.
 Step number   1 out of a maximum of  100
 All quantities printed in internal units (Hartrees-Bohrs-Radians)
 Mixed Optimization -- RFO/linear search
 Second derivative matrix not updated -- analytic derivatives used.
 ITU=  0
     Eigenvalues ---    0.00201   0.00284   0.00698   0.05151   0.05273
     Eigenvalues ---    0.05837   0.06696   0.10470   0.11222   0.12504
     Eigenvalues ---    0.13469   0.16562   0.16887   0.23473   0.26763
     Eigenvalues ---    0.33121   0.38867   0.40606   0.68413   0.68601
     Eigenvalues ---    0.69260   0.69337   1.41363   1.41473
 RFO step:  Lambda=-1.50303368D-01 EMin= 2.00934648D-03
 Linear search not attempted -- first point.
 Maximum step size (   0.300) exceeded in Quadratic search.
    -- Step size scaled by   0.810
 Iteration  1 RMS(Cart)=  0.04668388 RMS(Int)=  0.00037037
 Iteration  2 RMS(Cart)=  0.00043094 RMS(Int)=  0.00003346
 Iteration  3 RMS(Cart)=  0.00000020 RMS(Int)=  0.00003346
 Variable       Old X    -DE/DX   Delta X   Delta X   Delta X     New X
                                 (Linear)    (Quad)   (Total)
    R1        2.69895   0.00183   0.00000   0.00231   0.00231   2.70127
    R2        2.83119   0.02116   0.00000   0.03054   0.03054   2.86174
    R3        1.83352   0.11619   0.00000   0.11188   0.11188   1.94541
    R4        1.83339   0.12212   0.00000   0.11803   0.11803   1.95142
    R5        1.54931   0.25010   0.00000   0.12994   0.12994   1.67925
    R6        2.68529   0.00247   0.00000   0.00096   0.00096   2.68624
    R7        1.83257   0.12290   0.00000   0.11929   0.11929   1.95187
    R8        1.83301   0.11767   0.00000   0.11323   0.11323   1.94624
    R9        1.55004   0.24892   0.00000   0.12965   0.12965   1.67969
    A1        1.95769  -0.00320   0.00000  -0.00869  -0.00871   1.94898
    A2        1.90562  -0.00480   0.00000  -0.01666  -0.01667   1.88895
    A3        1.90501   0.00218   0.00000   0.01001   0.01004   1.91505
    A4        1.90498   0.00283   0.00000   0.00654   0.00643   1.91141
    A5        1.90541   0.00252   0.00000   0.00744   0.00742   1.91283
    A6        1.88370   0.00059   0.00000   0.00173   0.00170   1.88541
    A7        1.91170  -0.00226   0.00000  -0.01285  -0.01285   1.89885
    A8        1.91892   0.00605   0.00000   0.01089   0.01088   1.92980
    A9        1.91396  -0.00150   0.00000  -0.00468  -0.00471   1.90925
   A10        1.91369   0.00188   0.00000   0.00810   0.00813   1.92182
   A11        1.91461   0.00015   0.00000   0.00662   0.00660   1.92121
   A12        1.91441  -0.00755   0.00000  -0.02023  -0.02024   1.89418
   A13        1.88798   0.00087   0.00000  -0.00092  -0.00091   1.88707
   A14        1.90955  -0.00583   0.00000  -0.02168  -0.02168   1.88786
    D1       -1.04475  -0.00276   0.00000  -0.01339  -0.01332  -1.05807
    D2        3.12459  -0.00095   0.00000  -0.00455  -0.00464   3.11994
    D3        1.06922  -0.00016   0.00000  -0.00281  -0.00279   1.06644
    D4       -1.03663   0.00004   0.00000   0.00122   0.00123  -1.03540
    D5        1.06989   0.00309   0.00000   0.01330   0.01331   1.08320
    D6        3.14046   0.00438   0.00000   0.01424   0.01423  -3.12849
    D7        1.07759  -0.00615   0.00000  -0.02097  -0.02099   1.05661
    D8       -3.09908  -0.00310   0.00000  -0.00889  -0.00891  -3.10798
    D9       -1.02850  -0.00182   0.00000  -0.00795  -0.00798  -1.03648
   D10        3.13282  -0.00236   0.00000  -0.01085  -0.01082   3.12200
   D11       -1.04385   0.00069   0.00000   0.00124   0.00126  -1.04259
   D12        1.02672   0.00198   0.00000   0.00218   0.00219   1.02891
   D13        1.04765  -0.00107   0.00000  -0.00832  -0.00825   1.03940
   D14       -1.05848  -0.00312   0.00000  -0.01360  -0.01363  -1.07210
   D15       -3.12988   0.00029   0.00000  -0.00426  -0.00430  -3.13417
         Item               Value     Threshold  Converged?
 Maximum Force            0.250102     0.000015     NO 
 RMS     Force            0.069327     0.000010     NO 
 Maximum Displacement     0.118455     0.000060     NO 
 RMS     Displacement     0.046679     0.000040     NO 
 Predicted change in Energy=-7.932649D-02
 GradGradGradGradGradGradGradGradGradGradGradGradGradGradGradGradGradGrad

                          Input orientation:                          
 ---------------------------------------------------------------------
 Center     Atomic      Atomic             Coordinates (Angstroms)
 Number     Number       Type             X           Y           Z
 ---------------------------------------------------------------------
      1          6           0      -13.861147    6.226941   28.654905
      2          8           0      -14.987756    5.752047   27.914260
      3          6           0      -12.659554    5.320615   28.487429
      4          8           0      -12.961740    4.003817   28.929453
      5          1           0      -14.124101    6.269191   29.649323
      6          1           0      -13.619631    7.182684   28.347352
      7          1           0      -14.774679    5.729741   27.051849
      8          1           0      -12.377473    5.305154   27.493930
      9          1           0      -11.867033    5.677501   29.039920
     10          1           0      -13.641886    3.698311   28.445580
 ---------------------------------------------------------------------
                    Distance matrix (angstroms):
                    1          2          3          4          5
     1  C    0.000000
     2  O    1.429450   0.000000
     3  C    1.514365   2.436223   0.000000
     4  O    2.413834   2.862108   1.421499   0.000000
     5  H    1.029465   2.005937   2.096353   2.645981   0.000000
     6  H    1.032648   2.026341   2.099684   3.298008   1.668558
     7  H    1.910899   0.888623   2.588827   3.129050   2.731506
     8  H    2.097342   2.681412   1.032883   2.023752   2.936970
     9  H    2.103952   3.318370   1.029905   2.002949   2.411602
    10  H    2.546736   2.512270   1.896997   0.888856   2.879402
                    6          7          8          9         10
     6  H    0.000000
     7  H    2.263517   0.000000
     8  H    2.407572   2.474330   0.000000
     9  H    2.411810   3.522720   1.670112   0.000000
    10  H    3.485829   2.711533   2.255288   2.724066   0.000000
 Stoichiometry    C2H6O2
 Framework group  C1[X(C2H6O2)]
 Deg. of freedom    24
 Full point group                 C1      NOp   1
 Largest Abelian subgroup         C1      NOp   1
 Largest concise Abelian subgroup C1      NOp   1
                         Standard orientation:                         
 ---------------------------------------------------------------------
 Center     Atomic      Atomic             Coordinates (Angstroms)
 Number     Number       Type             X           Y           Z
 ---------------------------------------------------------------------
      1          6           0        0.683555    0.596045   -0.280919
      2          8           0        1.411829   -0.590076    0.044751
      3          6           0       -0.715310    0.570112    0.298569
      4          8           0       -1.439882   -0.548640   -0.195444
      5          1           0        0.629703    0.669528   -1.306345
      6          1           0        1.189618    1.423851    0.072633
      7          1           0        1.478436   -0.651522    0.928741
      8          1           0       -0.658911    0.529061    1.329094
      9          1           0       -1.221958    1.428517    0.039431
     10          1           0       -1.001926   -1.286647    0.036086
 ---------------------------------------------------------------------
 Rotational constants (GHZ):     15.5876666      5.5676743      4.6280124
 Standard basis: 6-31G(d) (6D, 7F)
 There are    72 symmetry adapted cartesian basis functions of A   symmetry.
 There are    72 symmetry adapted basis functions of A   symmetry.
    72 basis functions,   136 primitive gaussians,    72 cartesian basis functions
    17 alpha electrons       17 beta electrons
       nuclear repulsion energy       135.1060565650 Hartrees.
 NAtoms=   10 NActive=   10 NUniq=   10 SFac= 1.00D+00 NAtFMM=   60 NAOKFM=F Big=F
 Integral buffers will be    131072 words long.
 Raffenetti 2 integral format.
 Two-electron integral symmetry is turned on.
 One-electron integrals computed using PRISM.
 NBasis=    72 RedAO= T EigKep=  4.99D-03  NBF=    72
 NBsUse=    72 1.00D-06 EigRej= -1.00D+00 NBFU=    72
 Initial guess from the checkpoint file:  "edo.chk"
 B after Tr=     0.000000   -0.000000   -0.000000
         Rot=    0.999997   -0.001962    0.000404    0.001100 Ang=  -0.26 deg.
 ExpMin= 1.61D-01 ExpMax= 5.48D+03 ExpMxC= 8.25D+02 IAcc=1 IRadAn=         1 AccDes= 0.00D+00
 Harris functional with IExCor=  402 and IRadAn=       1 diagonalized for initial guess.
 HarFok:  IExCor=  402 AccDes= 0.00D+00 IRadAn=         1 IDoV= 1 UseB2=F ITyADJ=14
 ICtDFT=  3500011 ScaDFX=  1.000000  1.000000  1.000000  1.000000
 FoFCou: FMM=F IPFlag=           0 FMFlag=      100000 FMFlg1=           0
         NFxFlg=           0 DoJE=T BraDBF=F KetDBF=T FulRan=T
         wScrn=  0.000000 ICntrl=     500 IOpCl=  0 I1Cent=   200000004 NGrid=           0
         NMat0=    1 NMatS0=      1 NMatT0=    0 NMatD0=    1 NMtDS0=    0 NMtDT0=    0
 Petite list used in FoFCou.
 Keep R1 ints in memory in canonical form, NReq=4383746.
 Requested convergence on RMS density matrix=1.00D-08 within 128 cycles.
 Requested convergence on MAX density matrix=1.00D-06.
 Requested convergence on             energy=1.00D-06.
 No special actions if energy rises.
 Integral accuracy reduced to 1.0D-05 until final iterations.
 Initial convergence to 1.0D-05 achieved.  Increase integral accuracy.
 SCF Done:  E(RB3LYP) =  -230.211860123     A.U. after   12 cycles
            NFock= 12  Conv=0.48D-08     -V/T= 2.0054
 DoSCS=F DFT=T ScalE2(SS,OS)=  1.000000  1.000000
 Range of M.O.s used for correlation:     1    72
 NBasis=    72 NAE=    17 NBE=    17 NFC=     0 NFV=     0
 NROrb=     72 NOA=    17 NOB=    17 NVA=    55 NVB=    55
 Symmetrizing basis deriv contribution to polar:
 IMax=3 JMax=2 DiffMx= 0.00D+00
 G2DrvN: will do    11 centers at a time, making    1 passes.
 Calling FoFCou, ICntrl=  3107 FMM=F I1Cent=   0 AccDes= 0.00D+00.
 End of G2Drv F.D. properties file   721 does not exist.
 End of G2Drv F.D. properties file   722 does not exist.
 End of G2Drv F.D. properties file   788 does not exist.
          IDoAtm=1111111111
          Differentiating once with respect to electric field.
                with respect to dipole field.
          Differentiating once with respect to nuclear coordinates.
 Keep R1 ints in memory in canonical form, NReq=4349966.
          There are    33 degrees of freedom in the 1st order CPHF.  IDoFFX=6 NUNeed=     3.
     30 vectors produced by pass  0 Test12= 2.83D-15 3.03D-09 XBig12= 1.47D+01 1.18D+00.
 AX will form    30 AO Fock derivatives at one time.
     30 vectors produced by pass  1 Test12= 2.83D-15 3.03D-09 XBig12= 9.86D-01 2.06D-01.
     30 vectors produced by pass  2 Test12= 2.83D-15 3.03D-09 XBig12= 1.36D-02 2.95D-02.
     30 vectors produced by pass  3 Test12= 2.83D-15 3.03D-09 XBig12= 3.03D-05 1.01D-03.
     30 vectors produced by pass  4 Test12= 2.83D-15 3.03D-09 XBig12= 2.68D-08 2.67D-05.
     11 vectors produced by pass  5 Test12= 2.83D-15 3.03D-09 XBig12= 1.18D-11 6.23D-07.
      3 vectors produced by pass  6 Test12= 2.83D-15 3.03D-09 XBig12= 5.78D-15 1.24D-08.
 InvSVY:  IOpt=1 It=  1 EMax= 8.88D-16
 Solved reduced A of dimension   164 with    33 vectors.
 Isotropic polarizability for W=    0.000000       26.97 Bohr**3.
 End of Minotr F.D. properties file   721 does not exist.
 End of Minotr F.D. properties file   722 does not exist.
 End of Minotr F.D. properties file   788 does not exist.
 Calling FoFJK, ICntrl=    100127 FMM=F ISym2X=0 I1Cent= 0 IOpClX= 0 NMat=1 NMatS=1 NMatT=0.
 ***** Axes restored to original set *****
 -------------------------------------------------------------------
 Center     Atomic                   Forces (Hartrees/Bohr)
 Number     Number              X              Y              Z
 -------------------------------------------------------------------
      1        6           0.001565884   -0.037110252   -0.036655042
      2        8          -0.026966328   -0.003278629    0.104763175
      3        6          -0.055031349   -0.023254732    0.018326902
      4        8           0.085835354    0.032414642    0.059796554
      5        1          -0.017826363   -0.001139839    0.047302325
      6        1           0.012797849    0.049634851   -0.014893540
      7        1           0.025454516    0.000109486   -0.100781601
      8        1           0.016077059    0.000267914   -0.051659716
      9        1           0.039165942    0.014514377    0.029414876
     10        1          -0.081072565   -0.032157818   -0.055613934
 -------------------------------------------------------------------
 Cartesian Forces:  Max     0.104763175 RMS     0.045746856
 FormGI is forming the generalized inverse of G from B-inverse, IUseBI=4.

 GradGradGradGradGradGradGradGradGradGradGradGradGradGradGradGradGradGrad
 Berny optimization.
 Using GEDIIS/GDIIS optimizer.
 Internal  Forces:  Max     0.103914776 RMS     0.029287325
 Search for a local minimum.
 Step number   2 out of a maximum of  100
 All quantities printed in internal units (Hartrees-Bohrs-Radians)
 Mixed Optimization -- RFO/linear search
 Second derivative matrix not updated -- analytic derivatives used.
 DE= -8.45D-02 DEPred=-7.93D-02 R= 1.07D+00
 TightC=F SS=  1.41D+00  RLast= 3.03D-01 DXNew= 5.0454D-01 9.0773D-01
 Trust test= 1.07D+00 RLast= 3.03D-01 DXMaxT set to 5.05D-01
 ITU=  1  0
 Use linear search instead of GDIIS.
     Eigenvalues ---    0.00227   0.00350   0.00745   0.04989   0.05087
     Eigenvalues ---    0.05723   0.06583   0.10232   0.10870   0.12293
     Eigenvalues ---    0.13242   0.16837   0.17172   0.22836   0.26074
     Eigenvalues ---    0.30590   0.37565   0.38975   0.48039   0.48329
     Eigenvalues ---    0.49718   0.49960   0.88683   0.88879
 RFO step:  Lambda=-1.33534905D-02 EMin= 2.26849521D-03
 Quintic linear search produced a step of  1.16461.
 Iteration  1 RMS(Cart)=  0.09683387 RMS(Int)=  0.03400057
 Iteration  2 RMS(Cart)=  0.03093435 RMS(Int)=  0.00204978
 Iteration  3 RMS(Cart)=  0.00129997 RMS(Int)=  0.00137439
 Iteration  4 RMS(Cart)=  0.00000209 RMS(Int)=  0.00137439
 Iteration  5 RMS(Cart)=  0.00000000 RMS(Int)=  0.00137439
 Variable       Old X    -DE/DX   Delta X   Delta X   Delta X     New X
                                 (Linear)    (Quad)   (Total)
    R1        2.70127   0.00018   0.00270   0.01164   0.01434   2.71561
    R2        2.86174   0.00883   0.03557   0.00810   0.04367   2.90540
    R3        1.94541   0.05020   0.13030   0.01848   0.14878   2.09418
    R4        1.95142   0.05337   0.13746   0.01753   0.15499   2.10641
    R5        1.67925   0.10391   0.15133  -0.02617   0.12516   1.80441
    R6        2.68624   0.00005   0.00112  -0.00917  -0.00806   2.67818
    R7        1.95187   0.05407   0.13893   0.02531   0.16424   2.11610
    R8        1.94624   0.05095   0.13187   0.01972   0.15159   2.09783
    R9        1.67969   0.10337   0.15100  -0.02318   0.12782   1.80751
    A1        1.94898  -0.00190  -0.01015  -0.04248  -0.05464   1.89433
    A2        1.88895  -0.00346  -0.01941  -0.08016  -0.10248   1.78647
    A3        1.91505   0.00191   0.01170   0.04897   0.06145   1.97650
    A4        1.91141   0.00152   0.00749  -0.00816  -0.00581   1.90560
    A5        1.91283   0.00159   0.00864   0.05686   0.06491   1.97773
    A6        1.88541   0.00036   0.00198   0.02540   0.02742   1.91282
    A7        1.89885  -0.00242  -0.01496  -0.02566  -0.04062   1.85823
    A8        1.92980   0.00294   0.01267  -0.00886   0.00360   1.93340
    A9        1.90925  -0.00111  -0.00549   0.00177  -0.00420   1.90505
   A10        1.92182   0.00159   0.00947   0.02502   0.03443   1.95625
   A11        1.92121   0.00099   0.00769   0.03970   0.04731   1.96852
   A12        1.89418  -0.00455  -0.02357  -0.04243  -0.06565   1.82852
   A13        1.88707   0.00008  -0.00106  -0.01530  -0.01601   1.87106
   A14        1.88786  -0.00441  -0.02525  -0.05629  -0.08155   1.80632
    D1       -1.05807  -0.00246  -0.01551  -0.25273  -0.26518  -1.32325
    D2        3.11994  -0.00090  -0.00541  -0.16372  -0.17336   2.94659
    D3        1.06644  -0.00041  -0.00325  -0.17535  -0.17743   0.88901
    D4       -1.03540   0.00019   0.00143   0.01325   0.01395  -1.02145
    D5        1.08320   0.00259   0.01550   0.05819   0.07299   1.15619
    D6       -3.12849   0.00296   0.01658   0.05560   0.07158  -3.05691
    D7        1.05661  -0.00434  -0.02444  -0.11943  -0.14367   0.91294
    D8       -3.10798  -0.00195  -0.01037  -0.07449  -0.08462   3.09059
    D9       -1.03648  -0.00157  -0.00929  -0.07708  -0.08603  -1.12252
   D10        3.12200  -0.00205  -0.01260  -0.05957  -0.07182   3.05018
   D11       -1.04259   0.00034   0.00147  -0.01463  -0.01277  -1.05536
   D12        1.02891   0.00072   0.00255  -0.01722  -0.01419   1.01472
   D13        1.03940  -0.00147  -0.00961  -0.26970  -0.27909   0.76031
   D14       -1.07210  -0.00265  -0.01587  -0.29222  -0.30878  -1.38088
   D15       -3.13417  -0.00061  -0.00501  -0.27135  -0.27589   2.87312
         Item               Value     Threshold  Converged?
 Maximum Force            0.103915     0.000015     NO 
 RMS     Force            0.029287     0.000010     NO 
 Maximum Displacement     0.281592     0.000060     NO 
 RMS     Displacement     0.116081     0.000040     NO 
 Predicted change in Energy=-2.243086D-02
 GradGradGradGradGradGradGradGradGradGradGradGradGradGradGradGradGradGrad

                          Input orientation:                          
 ---------------------------------------------------------------------
 Center     Atomic      Atomic             Coordinates (Angstroms)
 Number     Number       Type             X           Y           Z
 ---------------------------------------------------------------------
      1          6           0      -13.856576    6.213354   28.631890
      2          8           0      -14.959003    5.637884   27.911773
      3          6           0      -12.631154    5.300761   28.460603
      4          8           0      -12.906746    3.994500   28.936296
      5          1           0      -14.205960    6.160526   29.682240
      6          1           0      -13.657805    7.275138   28.356969
      7          1           0      -14.799037    5.812902   26.986827
      8          1           0      -12.311070    5.313052   27.387602
      9          1           0      -11.766278    5.645453   29.065208
     10          1           0      -13.781371    3.812431   28.594592
 ---------------------------------------------------------------------
                    Distance matrix (angstroms):
                    1          2          3          4          5
     1  C    0.000000
     2  O    1.437038   0.000000
     3  C    1.537474   2.415315   0.000000
     4  O    2.432726   2.821723   1.417234   0.000000
     5  H    1.108194   1.993685   2.170623   2.633639   0.000000
     6  H    1.114664   2.138204   2.227760   3.415010   1.816363
     7  H    1.937738   0.954854   2.670959   3.269217   2.781696
     8  H    2.178849   2.718790   1.119793   2.119402   3.094217
     9  H    2.208986   3.394696   1.110122   2.010705   2.568671
    10  H    2.402390   2.277133   1.885757   0.956494   2.622365
                    6          7          8          9         10
     6  H    0.000000
     7  H    2.306043   0.000000
     8  H    2.569659   2.569134   0.000000
     9  H    2.595254   3.680398   1.794896   0.000000
    10  H    3.473049   2.760876   2.422906   2.764426   0.000000
 Stoichiometry    C2H6O2
 Framework group  C1[X(C2H6O2)]
 Deg. of freedom    24
 Full point group                 C1      NOp   1
 Largest Abelian subgroup         C1      NOp   1
 Largest concise Abelian subgroup C1      NOp   1
                         Standard orientation:                         
 ---------------------------------------------------------------------
 Center     Atomic      Atomic             Coordinates (Angstroms)
 Number     Number       Type             X           Y           Z
 ---------------------------------------------------------------------
      1          6           0        0.691003    0.604017   -0.303286
      2          8           0        1.373773   -0.604174    0.069779
      3          6           0       -0.724973    0.569874    0.294770
      4          8           0       -1.437851   -0.565240   -0.165531
      5          1           0        0.623297    0.507583   -1.405198
      6          1           0        1.257710    1.527898   -0.042974
      7          1           0        1.621019   -0.503344    0.986540
      8          1           0       -0.653284    0.613562    1.411411
      9          1           0       -1.335959    1.438252   -0.029246
     10          1           0       -0.796335   -1.271979   -0.103430
 ---------------------------------------------------------------------
 Rotational constants (GHZ):     14.9761120      5.5889127      4.6411001
 Standard basis: 6-31G(d) (6D, 7F)
 There are    72 symmetry adapted cartesian basis functions of A   symmetry.
 There are    72 symmetry adapted basis functions of A   symmetry.
    72 basis functions,   136 primitive gaussians,    72 cartesian basis functions
    17 alpha electrons       17 beta electrons
       nuclear repulsion energy       132.9422294372 Hartrees.
 NAtoms=   10 NActive=   10 NUniq=   10 SFac= 1.00D+00 NAtFMM=   60 NAOKFM=F Big=F
 Integral buffers will be    131072 words long.
 Raffenetti 2 integral format.
 Two-electron integral symmetry is turned on.
 One-electron integrals computed using PRISM.
 NBasis=    72 RedAO= T EigKep=  5.55D-03  NBF=    72
 NBsUse=    72 1.00D-06 EigRej= -1.00D+00 NBFU=    72
 Initial guess from the checkpoint file:  "edo.chk"
 B after Tr=     0.000000    0.000000    0.000000
         Rot=    0.999757    0.021627   -0.001881   -0.003935 Ang=   2.53 deg.
 ExpMin= 1.61D-01 ExpMax= 5.48D+03 ExpMxC= 8.25D+02 IAcc=1 IRadAn=         1 AccDes= 0.00D+00
 Harris functional with IExCor=  402 and IRadAn=       1 diagonalized for initial guess.
 HarFok:  IExCor=  402 AccDes= 0.00D+00 IRadAn=         1 IDoV= 1 UseB2=F ITyADJ=14
 ICtDFT=  3500011 ScaDFX=  1.000000  1.000000  1.000000  1.000000
 FoFCou: FMM=F IPFlag=           0 FMFlag=      100000 FMFlg1=           0
         NFxFlg=           0 DoJE=T BraDBF=F KetDBF=T FulRan=T
         wScrn=  0.000000 ICntrl=     500 IOpCl=  0 I1Cent=   200000004 NGrid=           0
         NMat0=    1 NMatS0=      1 NMatT0=    0 NMatD0=    1 NMtDS0=    0 NMtDT0=    0
 Petite list used in FoFCou.
 Keep R1 ints in memory in canonical form, NReq=4383746.
 Requested convergence on RMS density matrix=1.00D-08 within 128 cycles.
 Requested convergence on MAX density matrix=1.00D-06.
 Requested convergence on             energy=1.00D-06.
 No special actions if energy rises.
 Integral accuracy reduced to 1.0D-05 until final iterations.
 Initial convergence to 1.0D-05 achieved.  Increase integral accuracy.
 SCF Done:  E(RB3LYP) =  -230.238799845     A.U. after   13 cycles
            NFock= 13  Conv=0.59D-08     -V/T= 2.0088
 DoSCS=F DFT=T ScalE2(SS,OS)=  1.000000  1.000000
 Range of M.O.s used for correlation:     1    72
 NBasis=    72 NAE=    17 NBE=    17 NFC=     0 NFV=     0
 NROrb=     72 NOA=    17 NOB=    17 NVA=    55 NVB=    55
 Symmetrizing basis deriv contribution to polar:
 IMax=3 JMax=2 DiffMx= 0.00D+00
 G2DrvN: will do    11 centers at a time, making    1 passes.
 Calling FoFCou, ICntrl=  3107 FMM=F I1Cent=   0 AccDes= 0.00D+00.
 End of G2Drv F.D. properties file   721 does not exist.
 End of G2Drv F.D. properties file   722 does not exist.
 End of G2Drv F.D. properties file   788 does not exist.
          IDoAtm=1111111111
          Differentiating once with respect to electric field.
                with respect to dipole field.
          Differentiating once with respect to nuclear coordinates.
 Keep R1 ints in memory in canonical form, NReq=4349966.
          There are    33 degrees of freedom in the 1st order CPHF.  IDoFFX=6 NUNeed=     3.
     30 vectors produced by pass  0 Test12= 2.83D-15 3.03D-09 XBig12= 1.75D+01 1.57D+00.
 AX will form    30 AO Fock derivatives at one time.
     30 vectors produced by pass  1 Test12= 2.83D-15 3.03D-09 XBig12= 1.29D+00 2.28D-01.
     30 vectors produced by pass  2 Test12= 2.83D-15 3.03D-09 XBig12= 1.91D-02 2.44D-02.
     30 vectors produced by pass  3 Test12= 2.83D-15 3.03D-09 XBig12= 3.76D-05 9.71D-04.
     30 vectors produced by pass  4 Test12= 2.83D-15 3.03D-09 XBig12= 3.07D-08 2.60D-05.
     13 vectors produced by pass  5 Test12= 2.83D-15 3.03D-09 XBig12= 1.45D-11 6.43D-07.
      3 vectors produced by pass  6 Test12= 2.83D-15 3.03D-09 XBig12= 7.35D-15 1.28D-08.
 InvSVY:  IOpt=1 It=  1 EMax= 6.22D-15
 Solved reduced A of dimension   166 with    33 vectors.
 Isotropic polarizability for W=    0.000000       29.97 Bohr**3.
 End of Minotr F.D. properties file   721 does not exist.
 End of Minotr F.D. properties file   722 does not exist.
 End of Minotr F.D. properties file   788 does not exist.
 Calling FoFJK, ICntrl=    100127 FMM=F ISym2X=0 I1Cent= 0 IOpClX= 0 NMat=1 NMatS=1 NMatT=0.
 ***** Axes restored to original set *****
 -------------------------------------------------------------------
 Center     Atomic                   Forces (Hartrees/Bohr)
 Number     Number              X              Y              Z
 -------------------------------------------------------------------
      1        6          -0.003182374   -0.007034291    0.010955835
      2        8           0.000736236    0.003240092    0.011313251
      3        6           0.012527423    0.007657931    0.005970145
      4        8           0.009724655    0.007153356   -0.001358504
      5        1           0.007701450    0.004852051   -0.006325001
      6        1          -0.001845030   -0.009832759    0.000656267
      7        1           0.000590257    0.001038023   -0.016782154
      8        1          -0.003003849   -0.002011769    0.007301647
      9        1          -0.007278714    0.002379161   -0.006486420
     10        1          -0.015970054   -0.007441795   -0.005245066
 -------------------------------------------------------------------
 Cartesian Forces:  Max     0.016782154 RMS     0.007591560
 FormGI is forming the generalized inverse of G from B-inverse, IUseBI=4.

 GradGradGradGradGradGradGradGradGradGradGradGradGradGradGradGradGradGrad
 Berny optimization.
 Using GEDIIS/GDIIS optimizer.
 Internal  Forces:  Max     0.017901847 RMS     0.005709334
 Search for a local minimum.
 Step number   3 out of a maximum of  100
 All quantities printed in internal units (Hartrees-Bohrs-Radians)
 Mixed Optimization -- RFO/linear search
 Second derivative matrix not updated -- analytic derivatives used.
 DE= -2.69D-02 DEPred=-2.24D-02 R= 1.20D+00
 TightC=F SS=  1.41D+00  RLast= 7.76D-01 DXNew= 8.4853D-01 2.3266D+00
 Trust test= 1.20D+00 RLast= 7.76D-01 DXMaxT set to 8.49D-01
 ITU=  1  1  0
 Use linear search instead of GDIIS.
     Eigenvalues ---    0.00371   0.00467   0.01222   0.04574   0.04961
     Eigenvalues ---    0.05794   0.06580   0.09640   0.10328   0.11863
     Eigenvalues ---    0.13427   0.17418   0.18104   0.21989   0.25648
     Eigenvalues ---    0.28327   0.28933   0.30126   0.31135   0.31526
     Eigenvalues ---    0.37367   0.39660   0.55666   0.56080
 RFO step:  Lambda=-4.36492764D-03 EMin= 3.71417668D-03
 Quintic linear search produced a step of -0.10560.
 Iteration  1 RMS(Cart)=  0.04494504 RMS(Int)=  0.00165699
 Iteration  2 RMS(Cart)=  0.00158048 RMS(Int)=  0.00021594
 Iteration  3 RMS(Cart)=  0.00000324 RMS(Int)=  0.00021592
 Iteration  4 RMS(Cart)=  0.00000000 RMS(Int)=  0.00021592
 Variable       Old X    -DE/DX   Delta X   Delta X   Delta X     New X
                                 (Linear)    (Quad)   (Total)
    R1        2.71561   0.00000  -0.00151  -0.01048  -0.01200   2.70361
    R2        2.90540  -0.00781  -0.00461  -0.02140  -0.02601   2.87940
    R3        2.09418  -0.00866  -0.01571  -0.00888  -0.02459   2.06959
    R4        2.10641  -0.00985  -0.01637  -0.00745  -0.02381   2.08260
    R5        1.80441   0.01655  -0.01322   0.04466   0.03144   1.83585
    R6        2.67818  -0.00073   0.00085  -0.00627  -0.00541   2.67277
    R7        2.11610  -0.00788  -0.01734  -0.00357  -0.02091   2.09519
    R8        2.09783  -0.00847  -0.01601  -0.00863  -0.02464   2.07319
    R9        1.80751   0.01790  -0.01350   0.04615   0.03265   1.84016
    A1        1.89433   0.00353   0.00577   0.02356   0.02898   1.92331
    A2        1.78647   0.00379   0.01082   0.04071   0.05098   1.83744
    A3        1.97650  -0.00290  -0.00649  -0.02076  -0.02709   1.94941
    A4        1.90560  -0.00116   0.00061   0.00709   0.00693   1.91253
    A5        1.97773  -0.00227  -0.00685  -0.02714  -0.03402   1.94371
    A6        1.91282  -0.00038  -0.00290  -0.01593  -0.01881   1.89401
    A7        1.85823   0.00536   0.00429   0.01485   0.01914   1.87737
    A8        1.93340  -0.00248  -0.00038  -0.00005  -0.00048   1.93292
    A9        1.90505   0.00173   0.00044  -0.00032  -0.00001   1.90504
   A10        1.95625  -0.00336  -0.00364  -0.01800  -0.02176   1.93449
   A11        1.96852  -0.00224  -0.00500  -0.02052  -0.02551   1.94301
   A12        1.82852   0.00624   0.00693   0.03903   0.04607   1.87460
   A13        1.87106   0.00014   0.00169   0.00020   0.00191   1.87297
   A14        1.80632   0.00749   0.00861   0.02022   0.02884   1.83515
    D1       -1.32325   0.00182   0.02800   0.06582   0.09425  -1.22900
    D2        2.94659  -0.00009   0.01831   0.02903   0.04678   2.99336
    D3        0.88901  -0.00054   0.01874   0.03330   0.05218   0.94118
    D4       -1.02145   0.00017  -0.00147   0.02739   0.02575  -0.99571
    D5        1.15619  -0.00315  -0.00771   0.00105  -0.00681   1.14938
    D6       -3.05691  -0.00392  -0.00756  -0.01001  -0.01764  -3.07455
    D7        0.91294   0.00578   0.01517   0.09016   0.10537   1.01831
    D8        3.09059   0.00246   0.00894   0.06383   0.07281  -3.11979
    D9       -1.12252   0.00169   0.00909   0.05277   0.06198  -1.06054
   D10        3.05018   0.00289   0.00758   0.05623   0.06384   3.11402
   D11       -1.05536  -0.00044   0.00135   0.02989   0.03128  -1.02408
   D12        1.01472  -0.00121   0.00150   0.01883   0.02045   1.03517
   D13        0.76031   0.00058   0.02947   0.01265   0.04207   0.80239
   D14       -1.38088   0.00177   0.03261   0.02789   0.06035  -1.32053
   D15        2.87312  -0.00102   0.02914   0.01456   0.04390   2.91702
         Item               Value     Threshold  Converged?
 Maximum Force            0.017902     0.000015     NO 
 RMS     Force            0.005709     0.000010     NO 
 Maximum Displacement     0.133633     0.000060     NO 
 RMS     Displacement     0.045016     0.000040     NO 
 Predicted change in Energy=-2.287547D-03
 GradGradGradGradGradGradGradGradGradGradGradGradGradGradGradGradGradGrad

                          Input orientation:                          
 ---------------------------------------------------------------------
 Center     Atomic      Atomic             Coordinates (Angstroms)
 Number     Number       Type             X           Y           Z
 ---------------------------------------------------------------------
      1          6           0      -13.856672    6.205965   28.647383
      2          8           0      -14.971868    5.662621   27.934653
      3          6           0      -12.636870    5.308517   28.478962
      4          8           0      -12.918743    3.992879   28.914950
      5          1           0      -14.163019    6.215396   29.698803
      6          1           0      -13.639729    7.240837   28.336711
      7          1           0      -14.790833    5.763994   26.985575
      8          1           0      -12.319290    5.321959   27.416776
      9          1           0      -11.794461    5.678804   29.076309
     10          1           0      -13.783515    3.775029   28.523877
 ---------------------------------------------------------------------
                    Distance matrix (angstroms):
                    1          2          3          4          5
     1  C    0.000000
     2  O    1.430688   0.000000
     3  C    1.523711   2.423608   0.000000
     4  O    2.418481   2.822117   1.414369   0.000000
     5  H    1.095180   2.017925   2.153966   2.665001   0.000000
     6  H    1.102062   2.104046   2.181702   3.376893   1.783439
     7  H    1.956937   0.971492   2.660305   3.219325   2.821261
     8  H    2.158565   2.724044   1.108728   2.090531   3.066792
     9  H    2.171311   3.376323   1.097082   2.032828   2.507090
    10  H    2.435170   2.307026   1.915306   0.973770   2.734934
                    6          7          8          9         10
     6  H    0.000000
     7  H    2.309042   0.000000
     8  H    2.504383   2.547520   0.000000
     9  H    2.528234   3.654678   1.776748   0.000000
    10  H    3.473834   2.708697   2.400545   2.808181   0.000000
 Stoichiometry    C2H6O2
 Framework group  C1[X(C2H6O2)]
 Deg. of freedom    24
 Full point group                 C1      NOp   1
 Largest Abelian subgroup         C1      NOp   1
 Largest concise Abelian subgroup C1      NOp   1
                         Standard orientation:                         
 ---------------------------------------------------------------------
 Center     Atomic      Atomic             Coordinates (Angstroms)
 Number     Number       Type             X           Y           Z
 ---------------------------------------------------------------------
      1          6           0        0.682137    0.603710   -0.288297
      2          8           0        1.383036   -0.596386    0.051378
      3          6           0       -0.728122    0.570255    0.287676
      4          8           0       -1.430107   -0.568422   -0.171750
      5          1           0        0.631750    0.608662   -1.382306
      6          1           0        1.229126    1.501997    0.040982
      7          1           0        1.566441   -0.568885    1.005004
      8          1           0       -0.669410    0.588249    1.394702
      9          1           0       -1.297843    1.454672   -0.023471
     10          1           0       -0.807579   -1.310019   -0.068208
 ---------------------------------------------------------------------
 Rotational constants (GHZ):     15.0251027      5.6252067      4.6494488
 Standard basis: 6-31G(d) (6D, 7F)
 There are    72 symmetry adapted cartesian basis functions of A   symmetry.
 There are    72 symmetry adapted basis functions of A   symmetry.
    72 basis functions,   136 primitive gaussians,    72 cartesian basis functions
    17 alpha electrons       17 beta electrons
       nuclear repulsion energy       133.2182407930 Hartrees.
 NAtoms=   10 NActive=   10 NUniq=   10 SFac= 1.00D+00 NAtFMM=   60 NAOKFM=F Big=F
 Integral buffers will be    131072 words long.
 Raffenetti 2 integral format.
 Two-electron integral symmetry is turned on.
 One-electron integrals computed using PRISM.
 NBasis=    72 RedAO= T EigKep=  5.38D-03  NBF=    72
 NBsUse=    72 1.00D-06 EigRej= -1.00D+00 NBFU=    72
 Initial guess from the checkpoint file:  "edo.chk"
 B after Tr=    -0.000000   -0.000000   -0.000000
         Rot=    0.999947   -0.010066    0.001653   -0.001168 Ang=  -1.18 deg.
 ExpMin= 1.61D-01 ExpMax= 5.48D+03 ExpMxC= 8.25D+02 IAcc=1 IRadAn=         1 AccDes= 0.00D+00
 Harris functional with IExCor=  402 and IRadAn=       1 diagonalized for initial guess.
 HarFok:  IExCor=  402 AccDes= 0.00D+00 IRadAn=         1 IDoV= 1 UseB2=F ITyADJ=14
 ICtDFT=  3500011 ScaDFX=  1.000000  1.000000  1.000000  1.000000
 FoFCou: FMM=F IPFlag=           0 FMFlag=      100000 FMFlg1=           0
         NFxFlg=           0 DoJE=T BraDBF=F KetDBF=T FulRan=T
         wScrn=  0.000000 ICntrl=     500 IOpCl=  0 I1Cent=   200000004 NGrid=           0
         NMat0=    1 NMatS0=      1 NMatT0=    0 NMatD0=    1 NMtDS0=    0 NMtDT0=    0
 Petite list used in FoFCou.
 Keep R1 ints in memory in canonical form, NReq=4383746.
 Requested convergence on RMS density matrix=1.00D-08 within 128 cycles.
 Requested convergence on MAX density matrix=1.00D-06.
 Requested convergence on             energy=1.00D-06.
 No special actions if energy rises.
 Integral accuracy reduced to 1.0D-05 until final iterations.
 Initial convergence to 1.0D-05 achieved.  Increase integral accuracy.
 SCF Done:  E(RB3LYP) =  -230.241108297     A.U. after   11 cycles
            NFock= 11  Conv=0.73D-08     -V/T= 2.0087
 DoSCS=F DFT=T ScalE2(SS,OS)=  1.000000  1.000000
 Range of M.O.s used for correlation:     1    72
 NBasis=    72 NAE=    17 NBE=    17 NFC=     0 NFV=     0
 NROrb=     72 NOA=    17 NOB=    17 NVA=    55 NVB=    55
 Symmetrizing basis deriv contribution to polar:
 IMax=3 JMax=2 DiffMx= 0.00D+00
 G2DrvN: will do    11 centers at a time, making    1 passes.
 Calling FoFCou, ICntrl=  3107 FMM=F I1Cent=   0 AccDes= 0.00D+00.
 End of G2Drv F.D. properties file   721 does not exist.
 End of G2Drv F.D. properties file   722 does not exist.
 End of G2Drv F.D. properties file   788 does not exist.
          IDoAtm=1111111111
          Differentiating once with respect to electric field.
                with respect to dipole field.
          Differentiating once with respect to nuclear coordinates.
 Keep R1 ints in memory in canonical form, NReq=4349966.
          There are    33 degrees of freedom in the 1st order CPHF.  IDoFFX=6 NUNeed=     3.
     30 vectors produced by pass  0 Test12= 2.83D-15 3.03D-09 XBig12= 1.73D+01 1.44D+00.
 AX will form    30 AO Fock derivatives at one time.
     30 vectors produced by pass  1 Test12= 2.83D-15 3.03D-09 XBig12= 1.32D+00 2.30D-01.
     30 vectors produced by pass  2 Test12= 2.83D-15 3.03D-09 XBig12= 1.91D-02 2.49D-02.
     30 vectors produced by pass  3 Test12= 2.83D-15 3.03D-09 XBig12= 4.02D-05 1.05D-03.
     30 vectors produced by pass  4 Test12= 2.83D-15 3.03D-09 XBig12= 3.33D-08 2.77D-05.
     13 vectors produced by pass  5 Test12= 2.83D-15 3.03D-09 XBig12= 1.45D-11 5.74D-07.
      3 vectors produced by pass  6 Test12= 2.83D-15 3.03D-09 XBig12= 7.08D-15 1.23D-08.
 InvSVY:  IOpt=1 It=  1 EMax= 4.00D-15
 Solved reduced A of dimension   166 with    33 vectors.
 Isotropic polarizability for W=    0.000000       29.69 Bohr**3.
 End of Minotr F.D. properties file   721 does not exist.
 End of Minotr F.D. properties file   722 does not exist.
 End of Minotr F.D. properties file   788 does not exist.
 Calling FoFJK, ICntrl=    100127 FMM=F ISym2X=0 I1Cent= 0 IOpClX= 0 NMat=1 NMatS=1 NMatT=0.
 ***** Axes restored to original set *****
 -------------------------------------------------------------------
 Center     Atomic                   Forces (Hartrees/Bohr)
 Number     Number              X              Y              Z
 -------------------------------------------------------------------
      1        6          -0.000256665    0.000584530    0.000609447
      2        8           0.000029147   -0.000421094   -0.000710596
      3        6           0.001067592    0.000422217   -0.000521808
      4        8          -0.000170907   -0.000843925   -0.001095258
      5        1           0.000298644    0.000417010   -0.000737462
      6        1          -0.000175269   -0.000807719    0.000095392
      7        1          -0.000249328    0.000287019    0.000537575
      8        1           0.000031251    0.000149450    0.001108073
      9        1          -0.000768291   -0.000244967   -0.000257386
     10        1           0.000193827    0.000457478    0.000972023
 -------------------------------------------------------------------
 Cartesian Forces:  Max     0.001108073 RMS     0.000579812
 FormGI is forming the generalized inverse of G from B-inverse, IUseBI=4.

 GradGradGradGradGradGradGradGradGradGradGradGradGradGradGradGradGradGrad
 Berny optimization.
 Using GEDIIS/GDIIS optimizer.
 Internal  Forces:  Max     0.001053143 RMS     0.000369876
 Search for a local minimum.
 Step number   4 out of a maximum of  100
 All quantities printed in internal units (Hartrees-Bohrs-Radians)
 Mixed Optimization -- En-DIIS/RFO-DIIS
 Second derivative matrix not updated -- analytic derivatives used.
 DE= -2.31D-03 DEPred=-2.29D-03 R= 1.01D+00
 TightC=F SS=  1.41D+00  RLast= 2.51D-01 DXNew= 1.4270D+00 7.5402D-01
 Trust test= 1.01D+00 RLast= 2.51D-01 DXMaxT set to 8.49D-01
 ITU=  1  1  1  0
 Use linear search instead of GDIIS.
     Eigenvalues ---    0.00358   0.00460   0.01186   0.04769   0.04995
     Eigenvalues ---    0.05709   0.06526   0.09999   0.10542   0.11959
     Eigenvalues ---    0.13502   0.17302   0.17603   0.22704   0.25700
     Eigenvalues ---    0.29789   0.30388   0.32107   0.33574   0.33905
     Eigenvalues ---    0.38027   0.39975   0.49398   0.49833
 RFO step:  Lambda=-1.92150692D-04 EMin= 3.58325934D-03
 Quintic linear search produced a step of -0.00671.
 Iteration  1 RMS(Cart)=  0.02505342 RMS(Int)=  0.00074024
 Iteration  2 RMS(Cart)=  0.00074218 RMS(Int)=  0.00000301
 Iteration  3 RMS(Cart)=  0.00000099 RMS(Int)=  0.00000292
 Variable       Old X    -DE/DX   Delta X   Delta X   Delta X     New X
                                 (Linear)    (Quad)   (Total)
    R1        2.70361   0.00030   0.00008   0.00180   0.00188   2.70549
    R2        2.87940   0.00029   0.00017   0.00193   0.00211   2.88150
    R3        2.06959  -0.00079   0.00017  -0.00240  -0.00224   2.06736
    R4        2.08260  -0.00081   0.00016  -0.00334  -0.00318   2.07941
    R5        1.83585  -0.00054  -0.00021  -0.00103  -0.00124   1.83461
    R6        2.67277   0.00033   0.00004   0.00033   0.00037   2.67314
    R7        2.09519  -0.00105   0.00014  -0.00376  -0.00362   2.09157
    R8        2.07319  -0.00082   0.00017  -0.00215  -0.00199   2.07120
    R9        1.84016  -0.00066  -0.00022  -0.00009  -0.00031   1.83985
    A1        1.92331   0.00007  -0.00019  -0.00153  -0.00172   1.92159
    A2        1.83744   0.00006  -0.00034   0.00098   0.00065   1.83809
    A3        1.94941  -0.00008   0.00018  -0.00122  -0.00104   1.94837
    A4        1.91253   0.00010  -0.00005   0.00442   0.00438   1.91691
    A5        1.94371  -0.00003   0.00023  -0.00091  -0.00069   1.94302
    A6        1.89401  -0.00011   0.00013  -0.00148  -0.00136   1.89265
    A7        1.87737  -0.00004  -0.00013   0.00107   0.00094   1.87831
    A8        1.93292   0.00003   0.00000  -0.00231  -0.00231   1.93061
    A9        1.90504  -0.00009   0.00000   0.00188   0.00188   1.90692
   A10        1.93449   0.00007   0.00015  -0.00303  -0.00288   1.93161
   A11        1.94301   0.00005   0.00017  -0.00049  -0.00032   1.94269
   A12        1.87460  -0.00002  -0.00031   0.00394   0.00362   1.87822
   A13        1.87297  -0.00004  -0.00001   0.00004   0.00003   1.87300
   A14        1.83515   0.00002  -0.00019  -0.00334  -0.00353   1.83162
    D1       -1.22900  -0.00014  -0.00063  -0.03276  -0.03340  -1.26240
    D2        2.99336  -0.00033  -0.00031  -0.03775  -0.03806   2.95530
    D3        0.94118  -0.00018  -0.00035  -0.03594  -0.03629   0.90490
    D4       -0.99571  -0.00000  -0.00017   0.04180   0.04163  -0.95407
    D5        1.14938   0.00002   0.00005   0.04093   0.04098   1.19037
    D6       -3.07455  -0.00004   0.00012   0.04033   0.04045  -3.03410
    D7        1.01831   0.00016  -0.00071   0.04467   0.04396   1.06227
    D8       -3.11979   0.00019  -0.00049   0.04380   0.04331  -3.07648
    D9       -1.06054   0.00013  -0.00042   0.04320   0.04278  -1.01776
   D10        3.11402   0.00007  -0.00043   0.04514   0.04471  -3.12445
   D11       -1.02408   0.00010  -0.00021   0.04428   0.04406  -0.98001
   D12        1.03517   0.00003  -0.00014   0.04367   0.04353   1.07870
   D13        0.80239  -0.00057  -0.00028  -0.08090  -0.08118   0.72121
   D14       -1.32053  -0.00051  -0.00041  -0.08136  -0.08176  -1.40229
   D15        2.91702  -0.00048  -0.00029  -0.08350  -0.08380   2.83322
         Item               Value     Threshold  Converged?
 Maximum Force            0.001053     0.000015     NO 
 RMS     Force            0.000370     0.000010     NO 
 Maximum Displacement     0.062238     0.000060     NO 
 RMS     Displacement     0.024839     0.000040     NO 
 Predicted change in Energy=-1.002510D-04
 GradGradGradGradGradGradGradGradGradGradGradGradGradGradGradGradGradGrad

                          Input orientation:                          
 ---------------------------------------------------------------------
 Center     Atomic      Atomic             Coordinates (Angstroms)
 Number     Number       Type             X           Y           Z
 ---------------------------------------------------------------------
      1          6           0      -13.852849    6.201026   28.644666
      2          8           0      -14.968802    5.640218   27.944770
      3          6           0      -12.627851    5.308333   28.478621
      4          8           0      -12.918292    3.983980   28.882015
      5          1           0      -14.154109    6.225996   29.696070
      6          1           0      -13.644839    7.230885   28.317627
      7          1           0      -14.809065    5.758156   26.994457
      8          1           0      -12.290944    5.343081   27.424903
      9          1           0      -11.799014    5.669532   29.098176
     10          1           0      -13.809236    3.804793   28.532695
 ---------------------------------------------------------------------
                    Distance matrix (angstroms):
                    1          2          3          4          5
     1  C    0.000000
     2  O    1.431681   0.000000
     3  C    1.524825   2.423880   0.000000
     4  O    2.417649   2.797525   1.414565   0.000000
     5  H    1.093997   2.018393   2.157255   2.686367   0.000000
     6  H    1.100378   2.102884   2.180915   3.374729   1.780242
     7  H    1.957977   0.970834   2.676337   3.207117   2.818963
     8  H    2.159500   2.743989   1.106813   2.088994   3.067429
     9  H    2.169423   3.373242   1.096031   2.034845   2.492710
    10  H    2.399244   2.249230   1.912910   0.973608   2.708247
                    6          7          8          9         10
     6  H    0.000000
     7  H    2.296765   0.000000
     8  H    2.488733   2.588148   0.000000
     9  H    2.540502   3.673404   1.774375   0.000000
    10  H    3.436769   2.679825   2.428733   2.799645   0.000000
 Stoichiometry    C2H6O2
 Framework group  C1[X(C2H6O2)]
 Deg. of freedom    24
 Full point group                 C1      NOp   1
 Largest Abelian subgroup         C1      NOp   1
 Largest concise Abelian subgroup C1      NOp   1
                         Standard orientation:                         
 ---------------------------------------------------------------------
 Center     Atomic      Atomic             Coordinates (Angstroms)
 Number     Number       Type             X           Y           Z
 ---------------------------------------------------------------------
      1          6           0        0.682165    0.610380   -0.281738
      2          8           0        1.371784   -0.599119    0.051803
      3          6           0       -0.735914    0.576367    0.277714
      4          8           0       -1.417451   -0.582296   -0.162739
      5          1           0        0.649395    0.632231   -1.375026
      6          1           0        1.229129    1.498858    0.067932
      7          1           0        1.570820   -0.571556    1.001616
      8          1           0       -0.693606    0.622435    1.382759
      9          1           0       -1.307448    1.447145   -0.063429
     10          1           0       -0.760467   -1.298273   -0.102217
 ---------------------------------------------------------------------
 Rotational constants (GHZ):     14.8964314      5.6962131      4.6674975
 Standard basis: 6-31G(d) (6D, 7F)
 There are    72 symmetry adapted cartesian basis functions of A   symmetry.
 There are    72 symmetry adapted basis functions of A   symmetry.
    72 basis functions,   136 primitive gaussians,    72 cartesian basis functions
    17 alpha electrons       17 beta electrons
       nuclear repulsion energy       133.3674065890 Hartrees.
 NAtoms=   10 NActive=   10 NUniq=   10 SFac= 1.00D+00 NAtFMM=   60 NAOKFM=F Big=F
 Integral buffers will be    131072 words long.
 Raffenetti 2 integral format.
 Two-electron integral symmetry is turned on.
 One-electron integrals computed using PRISM.
 NBasis=    72 RedAO= T EigKep=  5.35D-03  NBF=    72
 NBsUse=    72 1.00D-06 EigRej= -1.00D+00 NBFU=    72
 Initial guess from the checkpoint file:  "edo.chk"
 B after Tr=     0.000000    0.000000    0.000000
         Rot=    0.999996    0.001217    0.001817   -0.001836 Ang=   0.33 deg.
 ExpMin= 1.61D-01 ExpMax= 5.48D+03 ExpMxC= 8.25D+02 IAcc=1 IRadAn=         1 AccDes= 0.00D+00
 Harris functional with IExCor=  402 and IRadAn=       1 diagonalized for initial guess.
 HarFok:  IExCor=  402 AccDes= 0.00D+00 IRadAn=         1 IDoV= 1 UseB2=F ITyADJ=14
 ICtDFT=  3500011 ScaDFX=  1.000000  1.000000  1.000000  1.000000
 FoFCou: FMM=F IPFlag=           0 FMFlag=      100000 FMFlg1=           0
         NFxFlg=           0 DoJE=T BraDBF=F KetDBF=T FulRan=T
         wScrn=  0.000000 ICntrl=     500 IOpCl=  0 I1Cent=   200000004 NGrid=           0
         NMat0=    1 NMatS0=      1 NMatT0=    0 NMatD0=    1 NMtDS0=    0 NMtDT0=    0
 Petite list used in FoFCou.
 Keep R1 ints in memory in canonical form, NReq=4383746.
 Requested convergence on RMS density matrix=1.00D-08 within 128 cycles.
 Requested convergence on MAX density matrix=1.00D-06.
 Requested convergence on             energy=1.00D-06.
 No special actions if energy rises.
 Integral accuracy reduced to 1.0D-05 until final iterations.
 Initial convergence to 1.0D-05 achieved.  Increase integral accuracy.
 SCF Done:  E(RB3LYP) =  -230.241204167     A.U. after   11 cycles
            NFock= 11  Conv=0.37D-08     -V/T= 2.0087
 DoSCS=F DFT=T ScalE2(SS,OS)=  1.000000  1.000000
 Range of M.O.s used for correlation:     1    72
 NBasis=    72 NAE=    17 NBE=    17 NFC=     0 NFV=     0
 NROrb=     72 NOA=    17 NOB=    17 NVA=    55 NVB=    55
 Symmetrizing basis deriv contribution to polar:
 IMax=3 JMax=2 DiffMx= 0.00D+00
 G2DrvN: will do    11 centers at a time, making    1 passes.
 Calling FoFCou, ICntrl=  3107 FMM=F I1Cent=   0 AccDes= 0.00D+00.
 End of G2Drv F.D. properties file   721 does not exist.
 End of G2Drv F.D. properties file   722 does not exist.
 End of G2Drv F.D. properties file   788 does not exist.
          IDoAtm=1111111111
          Differentiating once with respect to electric field.
                with respect to dipole field.
          Differentiating once with respect to nuclear coordinates.
 Keep R1 ints in memory in canonical form, NReq=4349966.
          There are    33 degrees of freedom in the 1st order CPHF.  IDoFFX=6 NUNeed=     3.
     30 vectors produced by pass  0 Test12= 2.83D-15 3.03D-09 XBig12= 1.73D+01 1.44D+00.
 AX will form    30 AO Fock derivatives at one time.
     30 vectors produced by pass  1 Test12= 2.83D-15 3.03D-09 XBig12= 1.32D+00 2.31D-01.
     30 vectors produced by pass  2 Test12= 2.83D-15 3.03D-09 XBig12= 1.91D-02 2.48D-02.
     30 vectors produced by pass  3 Test12= 2.83D-15 3.03D-09 XBig12= 3.90D-05 9.88D-04.
     30 vectors produced by pass  4 Test12= 2.83D-15 3.03D-09 XBig12= 3.22D-08 2.90D-05.
     13 vectors produced by pass  5 Test12= 2.83D-15 3.03D-09 XBig12= 1.45D-11 6.21D-07.
      3 vectors produced by pass  6 Test12= 2.83D-15 3.03D-09 XBig12= 7.29D-15 1.18D-08.
 InvSVY:  IOpt=1 It=  1 EMax= 4.00D-15
 Solved reduced A of dimension   166 with    33 vectors.
 Isotropic polarizability for W=    0.000000       29.64 Bohr**3.
 End of Minotr F.D. properties file   721 does not exist.
 End of Minotr F.D. properties file   722 does not exist.
 End of Minotr F.D. properties file   788 does not exist.
 Calling FoFJK, ICntrl=    100127 FMM=F ISym2X=0 I1Cent= 0 IOpClX= 0 NMat=1 NMatS=1 NMatT=0.
 ***** Axes restored to original set *****
 -------------------------------------------------------------------
 Center     Atomic                   Forces (Hartrees/Bohr)
 Number     Number              X              Y              Z
 -------------------------------------------------------------------
      1        6          -0.000048693    0.000023767   -0.000019914
      2        8          -0.000025225    0.000044993    0.000009022
      3        6           0.000054824    0.000000151    0.000024380
      4        8          -0.000050794   -0.000046525   -0.000095411
      5        1           0.000007445    0.000012844    0.000008952
      6        1          -0.000011630   -0.000009020   -0.000005518
      7        1          -0.000012980   -0.000012994    0.000017813
      8        1           0.000024716   -0.000002677    0.000027972
      9        1           0.000002413    0.000049955    0.000015183
     10        1           0.000059923   -0.000060495    0.000017521
 -------------------------------------------------------------------
 Cartesian Forces:  Max     0.000095411 RMS     0.000034840
 FormGI is forming the generalized inverse of G from B-inverse, IUseBI=4.

 GradGradGradGradGradGradGradGradGradGradGradGradGradGradGradGradGradGrad
 Berny optimization.
 Using GEDIIS/GDIIS optimizer.
 Internal  Forces:  Max     0.000133531 RMS     0.000049348
 Search for a local minimum.
 Step number   5 out of a maximum of  100
 All quantities printed in internal units (Hartrees-Bohrs-Radians)
 Mixed Optimization -- En-DIIS/RFO-DIIS
 Swapping is turned off.
 Second derivative matrix not updated -- analytic derivatives used.
 DE= -9.59D-05 DEPred=-1.00D-04 R= 9.56D-01
 TightC=F SS=  1.41D+00  RLast= 2.02D-01 DXNew= 1.4270D+00 6.0607D-01
 Trust test= 9.56D-01 RLast= 2.02D-01 DXMaxT set to 8.49D-01
 ITU=  1  1  1  1  0
     Eigenvalues ---    0.00366   0.00444   0.01246   0.04804   0.05040
     Eigenvalues ---    0.05699   0.06638   0.10000   0.10546   0.11942
     Eigenvalues ---    0.13645   0.17287   0.17800   0.22906   0.25784
     Eigenvalues ---    0.30176   0.30717   0.32434   0.33728   0.34130
     Eigenvalues ---    0.38076   0.40070   0.49438   0.50089
 En-DIIS/RFO-DIIS IScMMF=        0 using points:     5    4
 RFO step:  Lambda=-2.22464392D-07.
 DidBck=F Rises=F RFO-DIIS coefs:    1.01677   -0.01677
 Iteration  1 RMS(Cart)=  0.00147546 RMS(Int)=  0.00000094
 Iteration  2 RMS(Cart)=  0.00000113 RMS(Int)=  0.00000006
 Iteration  3 RMS(Cart)=  0.00000000 RMS(Int)=  0.00000006
 Variable       Old X    -DE/DX   Delta X   Delta X   Delta X     New X
                                 (Linear)    (Quad)   (Total)
    R1        2.70549   0.00000   0.00003  -0.00017  -0.00014   2.70535
    R2        2.88150   0.00010   0.00004   0.00030   0.00034   2.88184
    R3        2.06736   0.00000  -0.00004   0.00005   0.00001   2.06737
    R4        2.07941  -0.00000  -0.00005   0.00005   0.00000   2.07941
    R5        1.83461  -0.00002  -0.00002  -0.00002  -0.00004   1.83457
    R6        2.67314   0.00008   0.00001   0.00005   0.00005   2.67319
    R7        2.09157  -0.00002  -0.00006  -0.00002  -0.00009   2.09149
    R8        2.07120   0.00002  -0.00003   0.00012   0.00009   2.07128
    R9        1.83985  -0.00004  -0.00001  -0.00012  -0.00013   1.83973
    A1        1.92159   0.00012  -0.00003   0.00070   0.00067   1.92226
[...]
 **** Fit       0.009967
 **** Fit       0.009218
 **** Fit       0.008477
 **** Fit       0.007742
 **** Fit       0.007012
 **** Fit       0.006287
 **** Fit       0.005569
 **** Fit       0.004862
 **** Fit       0.004174
 **** Fit       0.003515
 **** Fit       0.002898
 **** Fit       0.002340
 **** Fit       0.001863
 **** Fit       0.001490
 **** Fit       0.001249
 **** Fit       0.001166
 **** Fit       0.001267
 **** Fit       0.001569
 **** Fit       0.002084
 **** Fit       0.002813
 **** Fit       0.003747
 **** Fit       0.004867
 **** Fit       0.006149
 **** Fit       0.007568
 **** Fit       0.009096
 **** Fit       0.010707
 **** Fit       0.012369
 **** Fit       0.014039
 **** Fit       0.015654
 **** Fit       0.019022
 **** Fit       0.017990
 **** Fit       0.016975
 **** Fit       0.015999
 **** Fit       0.015068
 **** Fit       0.014182
 **** Fit       0.013336
 **** Fit       0.012524
 **** Fit       0.011739
 **** Fit       0.010976
 **** Fit       0.010229
 **** Fit       0.009493
 **** Fit       0.008764
 **** Fit       0.008040
 **** Fit       0.007317
 **** Fit       0.006594
 **** Fit       0.005870
 **** Fit       0.005147
 **** Fit       0.004428
 **** Fit       0.003717
 **** Fit       0.003023
 **** Fit       0.002355
 **** Fit       0.001728
 **** Fit       0.001159
 **** Fit       0.000669
 **** Fit       0.000282
 **** Fit       0.000024
 **** Fit      -0.000077
 **** Fit       0.000001
 **** Fit       0.000280
 **** Fit       0.000771
 **** Fit       0.001478
 **** Fit       0.002392
 **** Fit       0.003497
 **** Fit       0.004771
 **** Fit       0.006189
 **** Fit       0.007729
 **** Fit       0.009371
 **** Fit       0.011099
 **** Fit       0.012897
 **** Fit       0.014733
 **** Fit       0.019429
 **** Fit       0.018290
 **** Fit       0.017219
 **** Fit       0.016217
 **** Fit       0.015279
 **** Fit       0.014395
 **** Fit       0.013557
 **** Fit       0.012755
 **** Fit       0.011983
 **** Fit       0.011233
 **** Fit       0.010499
 **** Fit       0.009777
 **** Fit       0.009062
 **** Fit       0.008351
 **** Fit       0.007639
 **** Fit       0.006924
 **** Fit       0.006205
 **** Fit       0.005480
 **** Fit       0.004749
 **** Fit       0.004016
 **** Fit       0.003283
 **** Fit       0.002555
 **** Fit       0.001841
 **** Fit       0.001153
 **** Fit       0.000503
 **** Fit      -0.000091
 **** Fit      -0.000606
 **** Fit      -0.001019
 **** Fit      -0.001304
 **** Fit      -0.001434
 **** Fit      -0.001383
 **** Fit      -0.001131
 **** Fit      -0.000663
 **** Fit       0.000023
 **** Fit       0.000924
 **** Fit       0.002022
 **** Fit       0.003295
 **** Fit       0.004718
 **** Fit       0.006265
 **** Fit       0.007920
 **** Fit       0.009671
 **** Fit       0.011514
 **** Fit       0.013447
 **** Fit       0.018405
 **** Fit       0.017309
 **** Fit       0.016300
 **** Fit       0.015363
 **** Fit       0.014484
 **** Fit       0.013652
 **** Fit       0.012857
 **** Fit       0.012090
 **** Fit       0.011345
 **** Fit       0.010617
 **** Fit       0.009899
 **** Fit       0.009187
 **** Fit       0.008478
 **** Fit       0.007766
 **** Fit       0.007050
 **** Fit       0.006325
 **** Fit       0.005591
 **** Fit       0.004846
 **** Fit       0.004090
 **** Fit       0.003325
 **** Fit       0.002554
 **** Fit       0.001782
 **** Fit       0.001016
 **** Fit       0.000267
 **** Fit      -0.000452
 **** Fit      -0.001124
 **** Fit      -0.001728
 **** Fit      -0.002240
 **** Fit      -0.002633
 **** Fit       0.004253
 **** Fit       0.005925
 **** Fit       0.007693
 **** Fit       0.009553
 **** Fit       0.011512
 **** Fit       0.016369
 **** Fit       0.015447
 **** Fit       0.014582
 **** Fit       0.013761
 **** Fit       0.012975
 **** Fit       0.012216
 **** Fit       0.011479
 **** Fit       0.010757
 **** Fit       0.010045
 **** Fit       0.009338
 **** Fit       0.008632
 **** Fit       0.004705
 **** Fit       0.007292
 **** Fit       0.006623
 **** Fit       0.005954
 **** Fit       0.005277
 **** Fit       0.004584
 **** Fit       0.003869
 **** Fit       0.003122
 **** Fit       0.002338
 **** Fit       0.001507
 **** Fit       0.008406
 **** Fit       0.007743
 **** Fit       0.007093
 **** Fit       0.006449
 **** Fit       0.005803
 **** Fit       0.005146
 **** Fit       0.004473
 **** Fit       0.003775
 **** Fit       0.003047
 **** Fit       0.002279
 **** Fit       0.001465
 **** Fit       0.000596
 **** Fit       0.008639
 **** Fit       0.007985
 **** Fit       0.007348
 **** Fit       0.006719
 **** Fit       0.006090
 **** Fit       0.005454
 **** Fit       0.004804
 **** Fit       0.004134
 **** Fit       0.003435
 **** Fit       0.002702
 **** Fit       0.001926
 **** Fit       0.001100
 **** Fit       0.000214
 **** Fit      -0.000742
 **** Fit       0.009520
 **** Fit       0.008848
 **** Fit       0.008204
 **** Fit       0.007579
 **** Fit       0.006965
 **** Fit       0.006353
 **** Fit       0.005738
 **** Fit       0.005112
 **** Fit       0.004468
 **** Fit       0.003800
 **** Fit       0.003100
 **** Fit       0.002363
 **** Fit       0.001580
 **** Fit       0.000744
 **** Fit      -0.000156
 **** Fit      -0.001129
 **** Fit      -0.002188
 **** Fit       0.009691
 **** Fit       0.009027
 **** Fit       0.008394
 **** Fit       0.007783
 **** Fit       0.007184
 **** Fit       0.006590
 **** Fit       0.005995
 **** Fit       0.005391
 **** Fit       0.004773
 **** Fit       0.004134
 **** Fit       0.003468
 **** Fit       0.002768
 **** Fit       0.002028
 **** Fit       0.001240
 **** Fit       0.000395
 **** Fit      -0.000515
 **** Fit      -0.001502
 **** Fit      -0.002578
 **** Fit      -0.003759
 **** Fit       0.009680
 **** Fit       0.009027
 **** Fit       0.008405
 **** Fit       0.007803
 **** Fit       0.007215
 **** Fit       0.006632
 **** Fit       0.006047
 **** Fit       0.005455
 **** Fit       0.004849
 **** Fit       0.004223
 **** Fit       0.003571
 **** Fit       0.002886
 **** Fit       0.002162
 **** Fit       0.001392
 **** Fit       0.000567
 **** Fit      -0.000321
 **** Fit      -0.001283
 **** Fit      -0.002331
 **** Fit      -0.003479
 **** Fit      -0.004744
 **** Fit       0.010177
 **** Fit       0.009498
 **** Fit       0.008858
 **** Fit       0.008246
 **** Fit       0.007652
 **** Fit       0.007070
 **** Fit       0.006492
 **** Fit       0.005910
 **** Fit       0.005320
 **** Fit       0.004713
 **** Fit       0.004086
 **** Fit       0.003430
 **** Fit       0.002740
 **** Fit       0.002009
 **** Fit       0.001230
 **** Fit       0.000394
 **** Fit      -0.000509
 **** Fit      -0.001488
 **** Fit      -0.002556
 **** Fit      -0.003729
 **** Fit      -0.005024
 **** Fit       0.009956
 **** Fit       0.009296
 **** Fit       0.008670
 **** Fit       0.008070
 **** Fit       0.007486
 **** Fit       0.006911
 **** Fit       0.006338
 **** Fit       0.005760
 **** Fit       0.005172
 **** Fit       0.004567
 **** Fit       0.003938
 **** Fit       0.003280
 **** Fit       0.002587
 **** Fit       0.001851
 **** Fit       0.001065
 **** Fit       0.000220
 **** Fit      -0.000693
 **** Fit      -0.001685
 **** Fit      -0.002768
 **** Fit      -0.003959
 **** Fit      -0.005276
 **** Fit      -0.006741
 **** Fit       0.009712
 **** Fit       0.009072
 **** Fit       0.008463
 **** Fit       0.007875
 **** Fit       0.007302
 **** Fit       0.006735
 **** Fit       0.006169
 **** Fit       0.005596
 **** Fit       0.005010
 **** Fit       0.004406
 **** Fit       0.003778
 **** Fit       0.003120
 **** Fit       0.002424
 **** Fit       0.001685
 **** Fit       0.000894
 **** Fit       0.000044
 **** Fit      -0.000876
 **** Fit      -0.001876
 **** Fit      -0.002970
 **** Fit      -0.004173
 **** Fit      -0.005503
 **** Fit      -0.006983
 **** Fit       0.009963
 **** Fit       0.009311
 **** Fit       0.008692
 **** Fit       0.008098
 **** Fit       0.007520
 **** Fit       0.006952
 **** Fit       0.006387
 **** Fit       0.005818
 **** Fit       0.005240
 **** Fit       0.004645
 **** Fit       0.004028
 **** Fit       0.003384
 **** Fit       0.002704
 **** Fit       0.001984
 **** Fit       0.001215
 **** Fit       0.000389
 **** Fit      -0.000503
 **** Fit      -0.001471
 **** Fit      -0.002527
 **** Fit      -0.003687
 **** Fit      -0.004966
 **** Fit      -0.006387
 **** Fit      -0.007973
 **** Fit       0.009391
 **** Fit       0.008763
 **** Fit       0.008161
 **** Fit       0.007576
 **** Fit       0.007002
 **** Fit       0.006432
 **** Fit       0.005858
 **** Fit       0.005275
 **** Fit       0.004677
 **** Fit       0.004056
 **** Fit       0.003407
 **** Fit       0.002723
 **** Fit       0.001997
 **** Fit       0.001222
 **** Fit       0.000388
 **** Fit      -0.000512
 **** Fit      -0.001491
 **** Fit      -0.002561
 **** Fit      -0.003737
 **** Fit      -0.005035
 **** Fit      -0.006478
 **** Fit      -0.008092
 **** Fit       0.008810
 **** Fit       0.008202
 **** Fit       0.007613
 **** Fit       0.007034
 **** Fit       0.006459
 **** Fit       0.005882
 **** Fit       0.005297
 **** Fit       0.004695
 **** Fit       0.004072
 **** Fit       0.003420
 **** Fit       0.002734
 **** Fit       0.002004
 **** Fit       0.001225
 **** Fit       0.000387
 **** Fit      -0.000520
 **** Fit      -0.001506
 **** Fit      -0.002584
 **** Fit      -0.003769
 **** Fit      -0.005080
 **** Fit      -0.006536
 **** Fit      -0.008165
 **** Fit       0.008218
 **** Fit       0.007626
 **** Fit       0.007044
 **** Fit       0.006467
 **** Fit       0.005888
 **** Fit       0.005301
 **** Fit       0.004698
 **** Fit       0.004073
 **** Fit       0.003421
 **** Fit       0.002733
 **** Fit       0.002002
 **** Fit       0.001222
 **** Fit       0.000382
 **** Fit      -0.000527
 **** Fit      -0.001516
 **** Fit      -0.002597
 **** Fit      -0.003786
 **** Fit      -0.005100
 **** Fit      -0.006560
 **** Fit      -0.008192
 **** Fit       0.008077
 **** Fit       0.007480
 **** Fit       0.006891
 **** Fit       0.006305
 **** Fit       0.005715
 **** Fit       0.005115
 **** Fit       0.004498
 **** Fit       0.003857
 **** Fit       0.003184
 **** Fit       0.002474
 **** Fit       0.001716
 **** Fit       0.000904
 **** Fit       0.000028
 **** Fit      -0.000924
 **** Fit      -0.001962
 **** Fit      -0.003101
 **** Fit      -0.004357
 **** Fit      -0.005750
 **** Fit      -0.007302
 **** Fit      -0.009040
 **** Fit       0.007308
 **** Fit       0.006714
 **** Fit       0.006120
 **** Fit       0.005521
 **** Fit       0.004909
 **** Fit       0.004278
 **** Fit       0.003620
 **** Fit       0.002928
 **** Fit       0.002195
 **** Fit       0.001411
 **** Fit       0.000568
 **** Fit      -0.000345
 **** Fit      -0.001338
 **** Fit      -0.002425
 **** Fit      -0.003621
 **** Fit      -0.004943
 **** Fit      -0.006411
 **** Fit      -0.008049
 **** Fit       0.006978
 **** Fit       0.006370
 **** Fit       0.005759
 **** Fit       0.005138
 **** Fit       0.004500
 **** Fit       0.003837
 **** Fit       0.003142
 **** Fit       0.002406
 **** Fit       0.001620
 **** Fit       0.000775
 **** Fit      -0.000140
 **** Fit      -0.001136
 **** Fit      -0.002226
 **** Fit      -0.003427
 **** Fit      -0.004754
 **** Fit      -0.006228
 **** Fit      -0.007872
 **** Fit       0.006617
 **** Fit       0.005995
 **** Fit       0.005365
 **** Fit       0.004721
 **** Fit       0.004054
 **** Fit       0.003356
 **** Fit       0.002619
 **** Fit       0.001834
 **** Fit       0.000990
 **** Fit       0.000077
 **** Fit      -0.000918
 **** Fit      -0.002007
 **** Fit      -0.003205
 **** Fit      -0.004530
 **** Fit      -0.006000
 **** Fit      -0.007639
 **** Fit       0.006084
 **** Fit       0.005433
 **** Fit       0.004767
 **** Fit       0.004078
 **** Fit       0.003356
 **** Fit       0.002593
 **** Fit       0.001778
 **** Fit       0.000899
 **** Fit      -0.000055
 **** Fit      -0.001098
 **** Fit      -0.002243
 **** Fit      -0.003508
 **** Fit      -0.004910
 **** Fit      -0.006468
 **** Fit      -0.008205
 **** Fit       0.004816
 **** Fit       0.004106
 **** Fit       0.003362
 **** Fit       0.002574
 **** Fit       0.001729
 **** Fit       0.000816
 **** Fit      -0.000179
 **** Fit      -0.001270
 **** Fit      -0.002472
 **** Fit      -0.003803
 **** Fit      -0.005280
 **** Fit      -0.006921
 **** Fit       0.004135
 **** Fit       0.003372
 **** Fit       0.002561
 **** Fit       0.001690
 **** Fit       0.000744
 **** Fit      -0.000291
 **** Fit      -0.001429
 **** Fit      -0.002687
 **** Fit      -0.004082
 **** Fit      -0.005627
 **** Fit       0.003378
 **** Fit       0.002552
 **** Fit       0.001659
 **** Fit       0.000684
 **** Fit      -0.000387
 **** Fit      -0.001570
 **** Fit      -0.002880
 **** Fit      -0.004330
 **** Fit       0.002300
 **** Fit       0.001342
 **** Fit       0.000282
 **** Fit      -0.000897
 **** Fit      -0.002210
 **** Fit       0.008138
 **** Fit       0.006409
 **** Fit       0.008063
 **** Fit       0.004661
 **** Fit       0.006062
 **** Fit       0.007530
 **** Fit       0.003179
 **** Fit       0.004426
 **** Fit       0.005659
 **** Fit       0.006930
 **** Fit       0.001889
 **** Fit       0.003048
 **** Fit       0.004142
 **** Fit       0.005203
 **** Fit       0.006274
 **** Fit       0.000737
 **** Fit       0.001848
 **** Fit       0.002867
 **** Fit       0.003810
 **** Fit       0.004702
 **** Fit       0.005577
 **** Fit      -0.000660
 **** Fit       0.000477
 **** Fit       0.001503
 **** Fit       0.002424
 **** Fit       0.003254
 **** Fit       0.004008
 **** Fit       0.004714
 **** Fit       0.005407
 **** Fit      -0.000832
 **** Fit       0.000226
 **** Fit       0.001166
 **** Fit       0.001994
 **** Fit       0.002717
 **** Fit       0.003347
 **** Fit       0.003901
 **** Fit       0.004404
 **** Fit      -0.001320
 **** Fit      -0.000291
 **** Fit       0.000613
 **** Fit       0.001394
 **** Fit       0.002057
 **** Fit       0.002609
 **** Fit       0.003058
 **** Fit       0.003418
 **** Fit      -0.001786
 **** Fit      -0.000785
 **** Fit       0.000086
 **** Fit       0.000828
 **** Fit       0.001442
 **** Fit       0.001933
 **** Fit       0.002303
 **** Fit       0.002558
 **** Fit       0.002707
 **** Fit      -0.002559
 **** Fit      -0.001533
 **** Fit      -0.000643
 **** Fit       0.000111
 **** Fit       0.000730
 **** Fit       0.001213
 **** Fit       0.001560
 **** Fit       0.001772
 **** Fit       0.001849
 **** Fit      -0.003328
 **** Fit      -0.002277
 **** Fit      -0.001365
 **** Fit      -0.000592
 **** Fit       0.000041
 **** Fit       0.000532
 **** Fit       0.000879
 **** Fit       0.001078
 **** Fit       0.001127
 **** Fit       0.001020
 **** Fit      -0.004098
 **** Fit      -0.003023
 **** Fit      -0.002088
 **** Fit      -0.001293
 **** Fit      -0.000639
 **** Fit      -0.000130
 **** Fit       0.000232
 **** Fit       0.000442
 **** Fit       0.000493
 **** Fit       0.000377
 **** Fit       0.000085
 **** Fit      -0.004100
 **** Fit      -0.003088
 **** Fit      -0.002219
 **** Fit      -0.001493
 **** Fit      -0.000912
 **** Fit      -0.000482
 **** Fit      -0.000207
 **** Fit      -0.000094
 **** Fit      -0.000153
 **** Fit      -0.000395
 **** Fit      -0.000835
 **** Fit      -0.004463
 **** Fit      -0.003462
 **** Fit      -0.002607
 **** Fit      -0.001902
 **** Fit      -0.001348
 **** Fit      -0.000951
 **** Fit      -0.000718
 **** Fit      -0.000656
 **** Fit      -0.000779
 **** Fit      -0.001100
 **** Fit      -0.001640
 **** Fit      -0.004840
 **** Fit      -0.003853
 **** Fit      -0.003016
 **** Fit      -0.002331
 **** Fit      -0.001803
 **** Fit      -0.001436
 **** Fit      -0.001238
 **** Fit      -0.001220
 **** Fit      -0.001395
 **** Fit      -0.001780
 **** Fit      -0.002397
 **** Fit      -0.005235
 **** Fit      -0.004265
 **** Fit      -0.003447
 **** Fit      -0.002783
 **** Fit      -0.002278
 **** Fit      -0.001938
 **** Fit      -0.001770
 **** Fit      -0.001786
 **** Fit      -0.002001
 **** Fit      -0.002432
 **** Fit      -0.003104
 **** Fit      -0.004972
 **** Fit      -0.004118
 **** Fit      -0.003422
 **** Fit      -0.002888
 **** Fit      -0.002522
 **** Fit      -0.002333
 **** Fit      -0.002330
 **** Fit      -0.002529
 **** Fit      -0.002949
 **** Fit      -0.003612
 **** Fit      -0.005070
 **** Fit      -0.004283
 **** Fit      -0.003663
 **** Fit      -0.003216
 **** Fit      -0.002948
 **** Fit      -0.002870
 **** Fit      -0.002996
 **** Fit      -0.003344
 **** Fit      -0.003934
 **** Fit      -0.004796
 **** Fit      -0.006102
 **** Fit      -0.005220
 **** Fit      -0.004509
 **** Fit      -0.003972
 **** Fit      -0.003617
 **** Fit      -0.003453
 **** Fit      -0.003493
 **** Fit      -0.003751
 **** Fit      -0.004248
 **** Fit      -0.005010
 **** Fit      -0.006237
 **** Fit      -0.005429
 **** Fit      -0.004798
 **** Fit      -0.004350
 **** Fit      -0.004092
 **** Fit      -0.004035
 **** Fit      -0.004193
 **** Fit      -0.004582
 **** Fit      -0.005224
 **** Fit      -0.005888
 **** Fit      -0.005282
 **** Fit      -0.004869
 **** Fit      -0.004657
 **** Fit      -0.004656
 **** Fit      -0.004881
 **** Fit      -0.005349
 **** Fit      -0.006081
 **** Fit      -0.006371
 **** Fit      -0.005794
 **** Fit      -0.005417
 **** Fit      -0.005248
 **** Fit      -0.005299
 **** Fit      -0.005583
 **** Fit      -0.006117
 **** Fit      -0.006918
 **** Fit      -0.007070
 **** Fit      -0.006456
 **** Fit      -0.006053
 **** Fit      -0.005869
 **** Fit      -0.005914
 **** Fit      -0.006200
 **** Fit      -0.006740
 **** Fit      -0.007546
 **** Fit      -0.007137
 **** Fit      -0.006704
 **** Fit      -0.006497
 **** Fit      -0.006526
 **** Fit      -0.006800
 **** Fit      -0.007325
 **** Fit      -0.007461
 **** Fit      -0.007162
 **** Fit      -0.007109
 **** Fit      -0.007308
 **** Fit      -0.007760
 **** Fit      -0.008460
 **** Fit      -0.007855
 **** Fit      -0.007705
 **** Fit      -0.007813
 **** Fit      -0.008171
 **** Fit      -0.008762
 **** Fit      -0.008317
 **** Fit      -0.008563
 **** Fit      -0.009019
 **** Fit      -0.009235
 -----------------------------------------------------------------
 Leave Link  602 at Sun Mar 20 13:13:14 2016, MaxMem=  1073741824 cpu:         5.5
 (Enter /share/apps/gaussian/g09d01/intel/g09/l9999.exe)

 Test job not archived.
 1\1\GINC-COMPUTE-3-5\SP\RHF\6-31G(d)\C2H6O2\ROOT\20-Mar-2016\0\\#P gue
 ss=read geom=allcheck SCF=tight HF/6-31G* Pop=MK IOp(6/33=2,6/41=10,6/
 42=17)\\Title: EDO\\0,1\C,0,-13.8528423893,6.2012109603,28.644431802\O
 ,0,-14.9695578922,5.6404744234,27.9458499313\C,0,-12.6277826218,5.3082
 004756,28.4788871958\O,0,-12.9181712221,3.9833306961,28.8807242922\H,0
 ,-14.1534978386,6.2277384426,29.6959773591\H,0,-13.6443667518,7.230563
 2673,28.3160953455\H,0,-14.8106175345,5.7574884694,26.9953118507\H,0,-
 12.2893752794,5.3437142411,27.4257239185\H,0,-11.7998615005,5.66939040
 57,29.0997526392\H,0,-13.8089269697,3.8038886184,28.5312456656\\Versio
 n=ES64L-G09RevD.01\State=1-A\HF=-228.922\RMSD=9.712e-09\Dipole=0.09419
 87,0.8220471,-0.6822337\Quadrupole=-2.2188105,-0.3168296,2.5356401,2.5
 83914,0.2707672,0.8150338\PG=C01 [X(C2H6O2)]\\@


 THE MORE PROGRESS PHYSICAL SCIENCES MAKE, THE MORE THEY TEND TO ENTER
 THE DOMAIN OF MATHEMATICS, WHICH IS A KIND OF CENTRE TO WHICH THEY ALL
 CONVERGE.  WE MAY EVEN JUDGE THE DEGREE OF PERFECTION TO WHICH A 
 SCIENCE HAS ARRIVED BY THE FACILITY WITH WHICH IT MAY BE SUBMITTED
 TO CALCULATION.

                               -- ADOLPHE QUETELET, 1796-1874
 Job cpu time:       0 days  0 hours  0 minutes 13.5 seconds.
 File lengths (MBytes):  RWF=      5 Int=      0 D2E=      0 Chk=      2 Scr=      1
 Normal termination of Gaussian 09 at Sun Mar 20 13:13:14 2016.
