 Entering Gaussian System, Link 0=g09
 Input=NO3.gjf
 Output=NO3.log
 Initial command:
 /share/apps/gaussian/g09d01/intel/g09/l1.exe "/scratch/yl66/H2/small/Gau-25985.inp" -scrdir="/scratch/yl66/H2/small/"
 Entering Link 1 = /share/apps/gaussian/g09d01/intel/g09/l1.exe PID=     25986.
  
 Copyright (c) 1988,1990,1992,1993,1995,1998,2003,2009,2013,
            Gaussian, Inc.  All Rights Reserved.
  
 This is part of the Gaussian(R) 09 program.  It is based on
 the Gaussian(R) 03 system (copyright 2003, Gaussian, Inc.),
 the Gaussian(R) 98 system (copyright 1998, Gaussian, Inc.),
 the Gaussian(R) 94 system (copyright 1995, Gaussian, Inc.),
 the Gaussian 92(TM) system (copyright 1992, Gaussian, Inc.),
 the Gaussian 90(TM) system (copyright 1990, Gaussian, Inc.),
 the Gaussian 88(TM) system (copyright 1988, Gaussian, Inc.),
 the Gaussian 86(TM) system (copyright 1986, Carnegie Mellon
 University), and the Gaussian 82(TM) system (copyright 1983,
 Carnegie Mellon University). Gaussian is a federally registered
 trademark of Gaussian, Inc.
  
 This software contains proprietary and confidential information,
 including trade secrets, belonging to Gaussian, Inc.
  
 This software is provided under written license and may be
 used, copied, transmitted, or stored only in accord with that
 written license.
  
 The following legend is applicable only to US Government
 contracts under FAR:
  
                    RESTRICTED RIGHTS LEGEND
  
 Use, reproduction and disclosure by the US Government is
 subject to restrictions as set forth in subparagraphs (a)
 and (c) of the Commercial Computer Software - Restricted
 Rights clause in FAR 52.227-19.
  
 Gaussian, Inc.
 340 Quinnipiac St., Bldg. 40, Wallingford CT 06492
  
  
 ---------------------------------------------------------------
 Warning -- This program may not be used in any manner that
 competes with the business of Gaussian, Inc. or will provide
 assistance to any competitor of Gaussian, Inc.  The licensee
 of this program is prohibited from giving any competitor of
 Gaussian, Inc. access to this program.  By using this program,
 the user acknowledges that Gaussian, Inc. is engaged in the
 business of creating and licensing software in the field of
 computational chemistry and represents and warrants to the
 licensee that it is not a competitor of Gaussian, Inc. and that
 it will not use this program in any manner prohibited above.
 ---------------------------------------------------------------
  

 Cite this work as:
 Gaussian 09, Revision D.01,
 M. J. Frisch, G. W. Trucks, H. B. Schlegel, G. E. Scuseria, 
 M. A. Robb, J. R. Cheeseman, G. Scalmani, V. Barone, B. Mennucci, 
 G. A. Petersson, H. Nakatsuji, M. Caricato, X. Li, H. P. Hratchian, 
 A. F. Izmaylov, J. Bloino, G. Zheng, J. L. Sonnenberg, M. Hada, 
 M. Ehara, K. Toyota, R. Fukuda, J. Hasegawa, M. Ishida, T. Nakajima, 
 Y. Honda, O. Kitao, H. Nakai, T. Vreven, J. A. Montgomery, Jr., 
 J. E. Peralta, F. Ogliaro, M. Bearpark, J. J. Heyd, E. Brothers, 
 K. N. Kudin, V. N. Staroverov, T. Keith, R. Kobayashi, J. Normand, 
 K. Raghavachari, A. Rendell, J. C. Burant, S. S. Iyengar, J. Tomasi, 
 M. Cossi, N. Rega, J. M. Millam, M. Klene, J. E. Knox, J. B. Cross, 
 V. Bakken, C. Adamo, J. Jaramillo, R. Gomperts, R. E. Stratmann, 
 O. Yazyev, A. J. Austin, R. Cammi, C. Pomelli, J. W. Ochterski, 
 R. L. Martin, K. Morokuma, V. G. Zakrzewski, G. A. Voth, 
 P. Salvador, J. J. Dannenberg, S. Dapprich, A. D. Daniels, 
 O. Farkas, J. B. Foresman, J. V. Ortiz, J. Cioslowski, 
 and D. J. Fox, Gaussian, Inc., Wallingford CT, 2013.
 
 ******************************************
 Gaussian 09:  ES64L-G09RevD.01 24-Apr-2013
                20-Mar-2016 
 ******************************************
 %nproc=8
 Will use up to    8 processors via shared memory.
 %mem=8GB
 %chk=no3.chk
 ----------------------------------------------------------------------
 # B3LYP/6-31G* OPT=(calcall,tight,MaxCyc=200) SCF=tight integral=(grid
 =fine)
 ----------------------------------------------------------------------
 1/6=200,7=10,10=4,14=-1,18=20,19=15,26=3,38=1/1,3;
 2/9=110,12=2,17=6,18=5,40=1/2;
 3/5=1,6=6,7=1,11=2,16=1,25=1,30=1,71=2,74=-5,75=-4,140=1/1,2,3;
 4//1;
 5/5=2,32=2,38=5/2;
 8/6=4,10=90,11=11/1;
 11/6=1,8=1,9=11,15=111,16=1/1,2,10;
 10/6=1/2;
 6/7=2,8=2,9=2,10=2,18=1,28=1/1;
 7/10=1,25=1/1,2,3,16;
 1/6=200,7=10,10=4,14=-1,18=20,19=15,26=3/3(3);
 2/9=110/2;
 7/8=1,9=1,25=1,44=-1/16;
 99//99;
 2/9=110/2;
 3/5=1,6=6,7=1,11=2,16=1,25=1,30=1,71=2,74=-5,75=-4,140=1/1,2,3;
 4/5=5,16=3,69=1/1;
 5/5=2,32=2,38=5/2;
 8/6=4,10=90,11=11/1;
 11/6=1,8=1,9=11,15=111,16=1/1,2,10;
 10/6=1/2;
 7/10=1,25=1/1,2,3,16;
 1/6=200,7=10,10=4,14=-1,18=20,19=15,26=3/3(-8);
 2/9=110/2;
 6/7=2,8=2,9=2,10=2,18=1,19=2,28=1/1;
 7/8=1,9=1,25=1,44=-1/16;
 99//99;
 --------------
 Title: NO3, 2-
 --------------
 Symbolic Z-matrix:
 Charge = -1 Multiplicity = 1
 N                    -16.665    19.865    24.447 
 O1                   -16.139    19.944    23.315 
 O2                   -16.518    20.865    25.221 
 O3                   -17.262    18.91     24.83 
 

 GradGradGradGradGradGradGradGradGradGradGradGradGradGradGradGradGradGrad
 Berny optimization.
 Initialization pass.
                           ----------------------------
                           !    Initial Parameters    !
                           ! (Angstroms and Degrees)  !
 --------------------------                            --------------------------
 ! Name  Definition              Value          Derivative Info.                !
 --------------------------------------------------------------------------------
 ! R1    R(1,2)                  1.2507         calculate D2E/DX2 analytically  !
 ! R2    R(1,3)                  1.2731         calculate D2E/DX2 analytically  !
 ! R3    R(1,4)                  1.1896         calculate D2E/DX2 analytically  !
 ! A1    A(2,1,3)              116.8778         calculate D2E/DX2 analytically  !
 ! A2    A(2,1,4)              123.5839         calculate D2E/DX2 analytically  !
 ! A3    A(3,1,4)              119.5252         calculate D2E/DX2 analytically  !
 ! D1    D(2,1,4,3)            178.647          calculate D2E/DX2 analytically  !
 --------------------------------------------------------------------------------
 Trust Radius=3.00D-01 FncErr=1.00D-07 GrdErr=1.00D-06
 Number of steps in this run=    100 maximum allowed number of steps=    100.
 GradGradGradGradGradGradGradGradGradGradGradGradGradGradGradGradGradGrad

                          Input orientation:                          
 ---------------------------------------------------------------------
 Center     Atomic      Atomic             Coordinates (Angstroms)
 Number     Number       Type             X           Y           Z
 ---------------------------------------------------------------------
      1          7           0      -16.665000   19.865000   24.447000
      2          8           0      -16.139000   19.944000   23.315000
      3          8           0      -16.518000   20.865000   25.221000
      4          8           0      -17.262000   18.910000   24.830000
 ---------------------------------------------------------------------
                    Distance matrix (angstroms):
                    1          2          3          4
     1  N    0.000000
     2  O    1.250736   0.000000
     3  O    1.273061   2.150516   0.000000
     4  O    1.189589   2.150700   2.128014   0.000000
 Stoichiometry    NO3(1-)
 Framework group  C1[X(NO3)]
 Deg. of freedom     6
 Full point group                 C1      NOp   1
 Largest Abelian subgroup         C1      NOp   1
 Largest concise Abelian subgroup C1      NOp   1
                         Standard orientation:                         
 ---------------------------------------------------------------------
 Center     Atomic      Atomic             Coordinates (Angstroms)
 Number     Number       Type             X           Y           Z
 ---------------------------------------------------------------------
      1          7           0        0.003152   -0.037424    0.006307
      2          8           0       -1.246872    0.003979   -0.001828
      3          8           0        0.616028    1.078373   -0.001720
      4          8           0        0.628086   -1.049606   -0.001970
 ---------------------------------------------------------------------
 Rotational constants (GHZ):     13.9445434     13.5680339      6.8769909
 Standard basis: 6-31G(d) (6D, 7F)
 There are    60 symmetry adapted cartesian basis functions of A   symmetry.
 There are    60 symmetry adapted basis functions of A   symmetry.
    60 basis functions,   112 primitive gaussians,    60 cartesian basis functions
    16 alpha electrons       16 beta electrons
       nuclear repulsion energy       119.2925268376 Hartrees.
 NAtoms=    4 NActive=    4 NUniq=    4 SFac= 1.00D+00 NAtFMM=   60 NAOKFM=F Big=F
 Integral buffers will be    131072 words long.
 Raffenetti 2 integral format.
 Two-electron integral symmetry is turned on.
 One-electron integrals computed using PRISM.
 NBasis=    60 RedAO= T EigKep=  3.27D-03  NBF=    60
 NBsUse=    60 1.00D-06 EigRej= -1.00D+00 NBFU=    60
 ExpMin= 2.12D-01 ExpMax= 5.48D+03 ExpMxC= 8.25D+02 IAcc=2 IRadAn=         4 AccDes= 0.00D+00
 Harris functional with IExCor=  402 and IRadAn=       4 diagonalized for initial guess.
 HarFok:  IExCor=  402 AccDes= 0.00D+00 IRadAn=         4 IDoV= 1 UseB2=F ITyADJ=14
 ICtDFT=  3500011 ScaDFX=  1.000000  1.000000  1.000000  1.000000
 FoFCou: FMM=F IPFlag=           0 FMFlag=      100000 FMFlg1=           0
         NFxFlg=           0 DoJE=T BraDBF=F KetDBF=T FulRan=T
         wScrn=  0.000000 ICntrl=     500 IOpCl=  0 I1Cent=   200000004 NGrid=           0
         NMat0=    1 NMatS0=      1 NMatT0=    0 NMatD0=    1 NMtDS0=    0 NMtDT0=    0
 Petite list used in FoFCou.
 Keep R1 ints in memory in canonical form, NReq=2586869.
 Requested convergence on RMS density matrix=1.00D-08 within 128 cycles.
 Requested convergence on MAX density matrix=1.00D-06.
 Requested convergence on             energy=1.00D-06.
 No special actions if energy rises.
 Integral accuracy reduced to 1.0D-05 until final iterations.
 Initial convergence to 1.0D-05 achieved.  Increase integral accuracy.
 SCF Done:  E(RB3LYP) =  -280.328276070     A.U. after   15 cycles
            NFock= 15  Conv=0.48D-08     -V/T= 2.0067
 DoSCS=F DFT=T ScalE2(SS,OS)=  1.000000  1.000000
 Range of M.O.s used for correlation:     1    60
 NBasis=    60 NAE=    16 NBE=    16 NFC=     0 NFV=     0
 NROrb=     60 NOA=    16 NOB=    16 NVA=    44 NVB=    44
 Symmetrizing basis deriv contribution to polar:
 IMax=3 JMax=2 DiffMx= 0.00D+00
 G2DrvN: will do     5 centers at a time, making    1 passes.
 Calling FoFCou, ICntrl=  3107 FMM=F I1Cent=   0 AccDes= 0.00D+00.
 End of G2Drv F.D. properties file   721 does not exist.
 End of G2Drv F.D. properties file   722 does not exist.
 End of G2Drv F.D. properties file   788 does not exist.
          IDoAtm=1111
          Differentiating once with respect to electric field.
                with respect to dipole field.
          Differentiating once with respect to nuclear coordinates.
 Keep R1 ints in memory in canonical form, NReq=2556468.
          There are    15 degrees of freedom in the 1st order CPHF.  IDoFFX=6 NUNeed=     3.
     12 vectors produced by pass  0 Test12= 4.69D-15 6.67D-09 XBig12= 2.55D+01 3.30D+00.
 AX will form    12 AO Fock derivatives at one time.
     12 vectors produced by pass  1 Test12= 4.69D-15 6.67D-09 XBig12= 8.21D+00 6.63D-01.
     12 vectors produced by pass  2 Test12= 4.69D-15 6.67D-09 XBig12= 4.55D-02 7.25D-02.
     12 vectors produced by pass  3 Test12= 4.69D-15 6.67D-09 XBig12= 1.67D-03 7.28D-03.
     12 vectors produced by pass  4 Test12= 4.69D-15 6.67D-09 XBig12= 4.47D-06 5.35D-04.
     12 vectors produced by pass  5 Test12= 4.69D-15 6.67D-09 XBig12= 4.92D-09 1.35D-05.
      6 vectors produced by pass  6 Test12= 4.69D-15 6.67D-09 XBig12= 4.86D-12 4.62D-07.
      1 vectors produced by pass  7 Test12= 4.69D-15 6.67D-09 XBig12= 3.43D-15 1.07D-08.
 InvSVY:  IOpt=1 It=  1 EMax= 9.99D-16
 Solved reduced A of dimension    79 with    12 vectors.
 Isotropic polarizability for W=    0.000000       17.93 Bohr**3.
 End of Minotr F.D. properties file   721 does not exist.
 End of Minotr F.D. properties file   722 does not exist.
 End of Minotr F.D. properties file   788 does not exist.

 **********************************************************************

            Population analysis using the SCF density.

 **********************************************************************

 Orbital symmetries:
       Occupied  (A) (A) (A) (A) (A) (A) (A) (A) (A) (A) (A) (A)
                 (A) (A) (A) (A)
       Virtual   (A) (A) (A) (A) (A) (A) (A) (A) (A) (A) (A) (A)
                 (A) (A) (A) (A) (A) (A) (A) (A) (A) (A) (A) (A)
                 (A) (A) (A) (A) (A) (A) (A) (A) (A) (A) (A) (A)
                 (A) (A) (A) (A) (A) (A) (A) (A)
 The electronic state is 1-A.
 Alpha  occ. eigenvalues --  -18.91395 -18.89562 -18.88445 -14.34592  -1.00645
 Alpha  occ. eigenvalues --   -0.79700  -0.75211  -0.34683  -0.30097  -0.26702
 Alpha  occ. eigenvalues --   -0.26342  -0.07048  -0.06509  -0.05810  -0.03701
 Alpha  occ. eigenvalues --    0.00959
 Alpha virt. eigenvalues --    0.23442   0.46321   0.58736   0.65543   0.86088
 Alpha virt. eigenvalues --    0.90622   0.90836   0.91232   1.05919   1.11008
 Alpha virt. eigenvalues --    1.11362   1.16889   1.18608   1.20798   1.21936
 Alpha virt. eigenvalues --    1.25720   1.30843   1.34487   1.61244   1.63543
 Alpha virt. eigenvalues --    1.76020   1.78964   2.02083   2.04946   2.05110
 Alpha virt. eigenvalues --    2.06543   2.08898   2.10695   2.29078   2.33095
 Alpha virt. eigenvalues --    2.34811   2.45364   2.55037   2.87520   2.94734
 Alpha virt. eigenvalues --    3.04378   3.06231   3.10537   3.31702   3.34005
 Alpha virt. eigenvalues --    3.60561   4.04295   4.05785   4.10780
          Condensed to atoms (all electrons):
               1          2          3          4
     1  N    5.308195   0.332540   0.325297   0.348358
     2  O    0.332540   8.488730  -0.130068  -0.118954
     3  O    0.325297  -0.130068   8.518671  -0.132050
     4  O    0.348358  -0.118954  -0.132050   8.434158
 Mulliken charges:
               1
     1  N    0.685610
     2  O   -0.572249
     3  O   -0.581850
     4  O   -0.531512
 Sum of Mulliken charges =  -1.00000
 Mulliken charges with hydrogens summed into heavy atoms:
               1
     1  N    0.685610
     2  O   -0.572249
     3  O   -0.581850
     4  O   -0.531512
 APT charges:
               1
     1  N    1.461316
     2  O   -0.815309
     3  O   -0.813984
     4  O   -0.832023
 Sum of APT charges =  -1.00000
 APT charges with hydrogens summed into heavy atoms:
               1
     1  N    1.461316
     2  O   -0.815309
     3  O   -0.813984
     4  O   -0.832023
 Electronic spatial extent (au):  <R**2>=            189.3917
 Charge=             -1.0000 electrons
 Dipole moment (field-independent basis, Debye):
    X=              0.0992    Y=             -0.5263    Z=              0.0208  Tot=              0.5359
 Quadrupole moment (field-independent basis, Debye-Ang):
   XX=            -28.6062   YY=            -28.4093   ZZ=            -21.1751
   XY=             -0.1986   XZ=              0.0006   YZ=             -0.0038
 Traceless Quadrupole moment (field-independent basis, Debye-Ang):
   XX=             -2.5427   YY=             -2.3457   ZZ=              4.8884
   XY=             -0.1986   XZ=              0.0006   YZ=             -0.0038
 Octapole moment (field-independent basis, Debye-Ang**2):
  XXX=              3.5067  YYY=             -0.8723  ZZZ=              0.0004  XYY=             -3.1628
  XXY=             -0.2140  XXZ=             -0.0076  XZZ=              0.0777  YZZ=             -0.2852
  YYZ=             -0.0065  XYZ=             -0.0010
 Hexadecapole moment (field-independent basis, Debye-Ang**3):
 XXXX=           -103.5737 YYYY=           -101.0174 ZZZZ=            -14.9791 XXXY=             -0.5818
 XXXZ=              0.0169 YYYX=             -0.2508 YYYZ=             -0.0094 ZZZX=              0.0002
 ZZZY=             -0.0018 XXYY=            -34.1045 XXZZ=            -18.6965 YYZZ=            -18.2819
 XXYZ=             -0.0029 YYXZ=             -0.0142 ZZXY=             -0.1422
 N-N= 1.192925268376D+02 E-N=-9.085941756417D+02  KE= 2.784695099265D+02
  Exact polarizability:  22.558   0.080  22.201   0.001  -0.006   9.030
 Approx polarizability:  41.319   0.218  40.538   0.004  -0.022  12.654
 Calling FoFJK, ICntrl=    100127 FMM=F ISym2X=0 I1Cent= 0 IOpClX= 0 NMat=1 NMatS=1 NMatT=0.
 ***** Axes restored to original set *****
 -------------------------------------------------------------------
 Center     Atomic                   Forces (Hartrees/Bohr)
 Number     Number              X              Y              Z
 -------------------------------------------------------------------
      1        7           0.046795267    0.087014085   -0.003262864
      2        8           0.004518633   -0.010721434   -0.026586865
      3        8          -0.002029552    0.007394541    0.008416263
      4        8          -0.049284348   -0.083687193    0.021433466
 -------------------------------------------------------------------
 Cartesian Forces:  Max     0.087014085 RMS     0.041468504
 FormGI is forming the generalized inverse of G from B-inverse, IUseBI=4.

 GradGradGradGradGradGradGradGradGradGradGradGradGradGradGradGradGradGrad
 Berny optimization.
 Internal  Forces:  Max     0.098818332 RMS     0.039881651
 Search for a local minimum.
 Step number   1 out of a maximum of  100
 All quantities printed in internal units (Hartrees-Bohrs-Radians)
 Mixed Optimization -- RFO/linear search
 Second derivative matrix not updated -- analytic derivatives used.
 The second derivative matrix:
                          R1        R2        R3        A1        A2
           R1           0.61566
           R2           0.08427   0.53644
           R3           0.08884   0.09386   0.93519
           A1           0.03905   0.03167  -0.05872   0.27913
           A2           0.01973  -0.06419   0.02002  -0.13236   0.26595
           A3          -0.05875   0.03256   0.03875  -0.14687  -0.13352
           D1           0.00204   0.00219   0.00193  -0.00141   0.00204
                          A3        D1
           A3           0.28046
           D1           0.00209   0.14128
 ITU=  0
     Eigenvalues ---    0.14124   0.34521   0.38921   0.53650   0.65141
     Eigenvalues ---    0.99053
 RFO step:  Lambda=-1.29299782D-02 EMin= 1.41243575D-01
 Linear search not attempted -- first point.
 Iteration  1 RMS(Cart)=  0.03756196 RMS(Int)=  0.00095605
 Iteration  2 RMS(Cart)=  0.00102423 RMS(Int)=  0.00003700
 Iteration  3 RMS(Cart)=  0.00000041 RMS(Int)=  0.00003700
 Variable       Old X    -DE/DX   Delta X   Delta X   Delta X     New X
                                 (Linear)    (Quad)   (Total)
    R1        2.36355   0.02529   0.00000   0.02651   0.02651   2.39006
    R2        2.40574   0.01069   0.00000  -0.01266  -0.01266   2.39308
    R3        2.24800   0.09882   0.00000   0.10664   0.10664   2.35463
    A1        2.03990   0.01397   0.00000   0.04669   0.04663   2.08654
    A2        2.15695  -0.01945   0.00000  -0.05568  -0.05573   2.10121
    A3        2.08611   0.00554   0.00000   0.00938   0.00932   2.09543
    D1        3.11798   0.00334   0.00000   0.02116   0.02116   3.13914
         Item               Value     Threshold  Converged?
 Maximum Force            0.098818     0.000015     NO 
 RMS     Force            0.039882     0.000010     NO 
 Maximum Displacement     0.055666     0.000060     NO 
 RMS     Displacement     0.037547     0.000040     NO 
 Predicted change in Energy=-6.581681D-03
 GradGradGradGradGradGradGradGradGradGradGradGradGradGradGradGradGradGrad

                          Input orientation:                          
 ---------------------------------------------------------------------
 Center     Atomic      Atomic             Coordinates (Angstroms)
 Number     Number       Type             X           Y           Z
 ---------------------------------------------------------------------
      1          7           0      -16.649891   19.890015   24.454003
      2          8           0      -16.138768   19.933552   23.297939
      3          8           0      -16.518202   20.879890   25.232770
      4          8           0      -17.277139   18.880543   24.828288
 ---------------------------------------------------------------------
                    Distance matrix (angstroms):
                    1          2          3          4
     1  N    0.000000
     2  O    1.264764   0.000000
     3  O    1.266362   2.187029   0.000000
     4  O    1.246019   2.178689   2.176460   0.000000
 Stoichiometry    NO3(1-)
 Framework group  C1[X(NO3)]
 Deg. of freedom     6
 Full point group                 C1      NOp   1
 Largest Abelian subgroup         C1      NOp   1
 Largest concise Abelian subgroup C1      NOp   1
                         Standard orientation:                         
 ---------------------------------------------------------------------
 Center     Atomic      Atomic             Coordinates (Angstroms)
 Number     Number       Type             X           Y           Z
 ---------------------------------------------------------------------
      1          7           0       -0.000559   -0.007357    0.000688
      2          8           0       -1.151142    0.517796   -0.000200
      3          8           0        1.025024    0.735510   -0.000199
      4          8           0        0.126606   -1.246869   -0.000204
 ---------------------------------------------------------------------
 Rotational constants (GHZ):     13.3666081     13.2100562      6.6439370
 Standard basis: 6-31G(d) (6D, 7F)
 There are    60 symmetry adapted cartesian basis functions of A   symmetry.
 There are    60 symmetry adapted basis functions of A   symmetry.
    60 basis functions,   112 primitive gaussians,    60 cartesian basis functions
    16 alpha electrons       16 beta electrons
       nuclear repulsion energy       117.2052444172 Hartrees.
 NAtoms=    4 NActive=    4 NUniq=    4 SFac= 1.00D+00 NAtFMM=   60 NAOKFM=F Big=F
 Integral buffers will be    131072 words long.
 Raffenetti 2 integral format.
 Two-electron integral symmetry is turned on.
 One-electron integrals computed using PRISM.
 NBasis=    60 RedAO= T EigKep=  4.13D-03  NBF=    60
 NBsUse=    60 1.00D-06 EigRej= -1.00D+00 NBFU=    60
 Initial guess from the checkpoint file:  "no3.chk"
 B after Tr=    -0.000000    0.000000   -0.000000
         Rot=    0.977096    0.000052   -0.000010    0.212801 Ang=  24.57 deg.
 ExpMin= 2.12D-01 ExpMax= 5.48D+03 ExpMxC= 8.25D+02 IAcc=1 IRadAn=         1 AccDes= 0.00D+00
 Harris functional with IExCor=  402 and IRadAn=       1 diagonalized for initial guess.
 HarFok:  IExCor=  402 AccDes= 0.00D+00 IRadAn=         1 IDoV= 1 UseB2=F ITyADJ=14
 ICtDFT=  3500011 ScaDFX=  1.000000  1.000000  1.000000  1.000000
 FoFCou: FMM=F IPFlag=           0 FMFlag=      100000 FMFlg1=           0
         NFxFlg=           0 DoJE=T BraDBF=F KetDBF=T FulRan=T
         wScrn=  0.000000 ICntrl=     500 IOpCl=  0 I1Cent=   200000004 NGrid=           0
         NMat0=    1 NMatS0=      1 NMatT0=    0 NMatD0=    1 NMtDS0=    0 NMtDT0=    0
 Petite list used in FoFCou.
 Keep R1 ints in memory in canonical form, NReq=2586869.
 Requested convergence on RMS density matrix=1.00D-08 within 128 cycles.
 Requested convergence on MAX density matrix=1.00D-06.
 Requested convergence on             energy=1.00D-06.
 No special actions if energy rises.
 Integral accuracy reduced to 1.0D-05 until final iterations.
 Initial convergence to 1.0D-05 achieved.  Increase integral accuracy.
 SCF Done:  E(RB3LYP) =  -280.335537912     A.U. after   13 cycles
            NFock= 13  Conv=0.53D-08     -V/T= 2.0076
 DoSCS=F DFT=T ScalE2(SS,OS)=  1.000000  1.000000
 Range of M.O.s used for correlation:     1    60
 NBasis=    60 NAE=    16 NBE=    16 NFC=     0 NFV=     0
 NROrb=     60 NOA=    16 NOB=    16 NVA=    44 NVB=    44
 Symmetrizing basis deriv contribution to polar:
 IMax=3 JMax=2 DiffMx= 0.00D+00
 G2DrvN: will do     5 centers at a time, making    1 passes.
 Calling FoFCou, ICntrl=  3107 FMM=F I1Cent=   0 AccDes= 0.00D+00.
 End of G2Drv F.D. properties file   721 does not exist.
 End of G2Drv F.D. properties file   722 does not exist.
 End of G2Drv F.D. properties file   788 does not exist.
          IDoAtm=1111
          Differentiating once with respect to electric field.
                with respect to dipole field.
          Differentiating once with respect to nuclear coordinates.
 Keep R1 ints in memory in canonical form, NReq=2556468.
          There are    15 degrees of freedom in the 1st order CPHF.  IDoFFX=6 NUNeed=     3.
     12 vectors produced by pass  0 Test12= 4.69D-15 6.67D-09 XBig12= 2.87D+01 4.68D+00.
 AX will form    12 AO Fock derivatives at one time.
     12 vectors produced by pass  1 Test12= 4.69D-15 6.67D-09 XBig12= 9.56D+00 8.16D-01.
     12 vectors produced by pass  2 Test12= 4.69D-15 6.67D-09 XBig12= 4.66D-02 8.55D-02.
     12 vectors produced by pass  3 Test12= 4.69D-15 6.67D-09 XBig12= 4.76D-04 8.08D-03.
     12 vectors produced by pass  4 Test12= 4.69D-15 6.67D-09 XBig12= 9.03D-06 7.17D-04.
     12 vectors produced by pass  5 Test12= 4.69D-15 6.67D-09 XBig12= 2.04D-08 4.04D-05.
      7 vectors produced by pass  6 Test12= 4.69D-15 6.67D-09 XBig12= 3.12D-11 1.88D-06.
      1 vectors produced by pass  7 Test12= 4.69D-15 6.67D-09 XBig12= 2.08D-14 3.01D-08.
 InvSVY:  IOpt=1 It=  1 EMax= 1.33D-15
 Solved reduced A of dimension    80 with    12 vectors.
 Isotropic polarizability for W=    0.000000       18.48 Bohr**3.
 End of Minotr F.D. properties file   721 does not exist.
 End of Minotr F.D. properties file   722 does not exist.
 End of Minotr F.D. properties file   788 does not exist.
 Calling FoFJK, ICntrl=    100127 FMM=F ISym2X=0 I1Cent= 0 IOpClX= 0 NMat=1 NMatS=1 NMatT=0.
 ***** Axes restored to original set *****
 -------------------------------------------------------------------
 Center     Atomic                   Forces (Hartrees/Bohr)
 Number     Number              X              Y              Z
 -------------------------------------------------------------------
      1        7           0.009462864    0.015817848   -0.003622571
      2        8           0.000294885   -0.000886841   -0.002123962
      3        8          -0.000144960    0.000856072    0.000825148
      4        8          -0.009612788   -0.015787080    0.004921386
 -------------------------------------------------------------------
 Cartesian Forces:  Max     0.015817848 RMS     0.007775765
 FormGI is forming the generalized inverse of G from B-inverse, IUseBI=4.

 GradGradGradGradGradGradGradGradGradGradGradGradGradGradGradGradGradGrad
 Berny optimization.
 Using GEDIIS/GDIIS optimizer.
 Internal  Forces:  Max     0.019107422 RMS     0.007314397
 Search for a local minimum.
 Step number   2 out of a maximum of  100
 All quantities printed in internal units (Hartrees-Bohrs-Radians)
 Mixed Optimization -- RFO/linear search
 Second derivative matrix not updated -- analytic derivatives used.
 DE= -7.26D-03 DEPred=-6.58D-03 R= 1.10D+00
 TightC=F SS=  1.41D+00  RLast= 1.34D-01 DXNew= 5.0454D-01 4.0305D-01
 Trust test= 1.10D+00 RLast= 1.34D-01 DXMaxT set to 4.03D-01
 The second derivative matrix:
                          R1        R2        R3        A1        A2
           R1           0.54546
           R2           0.07838   0.53980
           R3           0.08155   0.08194   0.62324
           A1           0.02625   0.02559  -0.05334   0.25489
           A2           0.02661  -0.05308   0.02592  -0.12673   0.25576
           A3          -0.05286   0.02749   0.02742  -0.12817  -0.12903
           D1           0.00021   0.00021   0.00021  -0.00016   0.00023
                          A3        D1
           A3           0.25720
           D1           0.00023   0.13825
 ITU=  1  0
 Use linear search instead of GDIIS.
     Eigenvalues ---    0.13825   0.33558   0.34450   0.51387   0.54399
     Eigenvalues ---    0.73841
 RFO step:  Lambda=-3.79172096D-05 EMin= 1.38254469D-01
 Quintic linear search produced a step of  0.26041.
 Iteration  1 RMS(Cart)=  0.00933751 RMS(Int)=  0.00005139
 Iteration  2 RMS(Cart)=  0.00004935 RMS(Int)=  0.00001493
 Iteration  3 RMS(Cart)=  0.00000000 RMS(Int)=  0.00001493
 Variable       Old X    -DE/DX   Delta X   Delta X   Delta X     New X
                                 (Linear)    (Quad)   (Total)
    R1        2.39006   0.00203   0.00690  -0.00644   0.00046   2.39052
    R2        2.39308   0.00116  -0.00330  -0.00229  -0.00559   2.38749
    R3        2.35463   0.01911   0.02777   0.00370   0.03146   2.38610
    A1        2.08654   0.00108   0.01214  -0.00105   0.01107   2.09761
    A2        2.10121  -0.00156  -0.01451   0.00344  -0.01110   2.09012
    A3        2.09543   0.00048   0.00243  -0.00238   0.00002   2.09546
    D1        3.13914   0.00034   0.00551   0.00158   0.00709  -3.13695
         Item               Value     Threshold  Converged?
 Maximum Force            0.019107     0.000015     NO 
 RMS     Force            0.007314     0.000010     NO 
 Maximum Displacement     0.015304     0.000060     NO 
 RMS     Displacement     0.009337     0.000040     NO 
 Predicted change in Energy=-3.058066D-04
 GradGradGradGradGradGradGradGradGradGradGradGradGradGradGradGradGradGrad

                          Input orientation:                          
 ---------------------------------------------------------------------
 Center     Atomic      Atomic             Coordinates (Angstroms)
 Number     Number       Type             X           Y           Z
 ---------------------------------------------------------------------
      1          7           0      -16.644881   19.896417   24.454611
      2          8           0      -16.139100   19.932408   23.295672
      3          8           0      -16.518121   20.882730   25.233909
      4          8           0      -17.281898   18.872444   24.828808
 ---------------------------------------------------------------------
                    Distance matrix (angstroms):
                    1          2          3          4
     1  N    0.000000
     2  O    1.265010   0.000000
     3  O    1.263403   2.191696   0.000000
     4  O    1.262669   2.186325   2.188312   0.000000
 Stoichiometry    NO3(1-)
 Framework group  C1[X(NO3)]
 Deg. of freedom     6
 Full point group                 C1      NOp   1
 Largest Abelian subgroup         C1      NOp   1
 Largest concise Abelian subgroup C1      NOp   1
                         Standard orientation:                         
 ---------------------------------------------------------------------
 Center     Atomic      Atomic             Coordinates (Angstroms)
 Number     Number       Type             X           Y           Z
 ---------------------------------------------------------------------
      1          7           0        0.001303    0.000274   -0.001312
      2          8           0       -0.959457    0.823188    0.000382
      3          8           0        1.194176    0.416494    0.000384
      4          8           0       -0.235859   -1.239922    0.000382
 ---------------------------------------------------------------------
 Rotational constants (GHZ):     13.2284061     13.1527900      6.5952502
 Standard basis: 6-31G(d) (6D, 7F)
 There are    60 symmetry adapted cartesian basis functions of A   symmetry.
 There are    60 symmetry adapted basis functions of A   symmetry.
    60 basis functions,   112 primitive gaussians,    60 cartesian basis functions
    16 alpha electrons       16 beta electrons
       nuclear repulsion energy       116.7703210383 Hartrees.
 NAtoms=    4 NActive=    4 NUniq=    4 SFac= 1.00D+00 NAtFMM=   60 NAOKFM=F Big=F
 Integral buffers will be    131072 words long.
 Raffenetti 2 integral format.
 Two-electron integral symmetry is turned on.
 One-electron integrals computed using PRISM.
 NBasis=    60 RedAO= T EigKep=  4.32D-03  NBF=    60
 NBsUse=    60 1.00D-06 EigRej= -1.00D+00 NBFU=    60
 Initial guess from the checkpoint file:  "no3.chk"
 B after Tr=    -0.000000    0.000000   -0.000000
         Rot=    0.989688   -0.000001    0.000000    0.143237 Ang= -16.47 deg.
 Keep R1 ints in memory in canonical form, NReq=2586869.
 Requested convergence on RMS density matrix=1.00D-08 within 128 cycles.
 Requested convergence on MAX density matrix=1.00D-06.
 Requested convergence on             energy=1.00D-06.
 No special actions if energy rises.
 SCF Done:  E(RB3LYP) =  -280.335858374     A.U. after   10 cycles
            NFock= 10  Conv=0.41D-08     -V/T= 2.0077
 DoSCS=F DFT=T ScalE2(SS,OS)=  1.000000  1.000000
 Range of M.O.s used for correlation:     1    60
 NBasis=    60 NAE=    16 NBE=    16 NFC=     0 NFV=     0
 NROrb=     60 NOA=    16 NOB=    16 NVA=    44 NVB=    44
 Symmetrizing basis deriv contribution to polar:
 IMax=3 JMax=2 DiffMx= 0.00D+00
 G2DrvN: will do     5 centers at a time, making    1 passes.
 Calling FoFCou, ICntrl=  3107 FMM=F I1Cent=   0 AccDes= 0.00D+00.
 End of G2Drv F.D. properties file   721 does not exist.
 End of G2Drv F.D. properties file   722 does not exist.
 End of G2Drv F.D. properties file   788 does not exist.
          IDoAtm=1111
          Differentiating once with respect to electric field.
                with respect to dipole field.
          Differentiating once with respect to nuclear coordinates.
 Keep R1 ints in memory in canonical form, NReq=2556468.
          There are    15 degrees of freedom in the 1st order CPHF.  IDoFFX=6 NUNeed=     3.
     12 vectors produced by pass  0 Test12= 4.69D-15 6.67D-09 XBig12= 2.91D+01 4.09D+00.
 AX will form    12 AO Fock derivatives at one time.
     12 vectors produced by pass  1 Test12= 4.69D-15 6.67D-09 XBig12= 9.79D+00 7.51D-01.
     12 vectors produced by pass  2 Test12= 4.69D-15 6.67D-09 XBig12= 4.82D-02 8.76D-02.
     12 vectors produced by pass  3 Test12= 4.69D-15 6.67D-09 XBig12= 3.32D-04 7.83D-03.
     12 vectors produced by pass  4 Test12= 4.69D-15 6.67D-09 XBig12= 4.48D-07 1.68D-04.
     12 vectors produced by pass  5 Test12= 4.69D-15 6.67D-09 XBig12= 3.82D-10 6.26D-06.
      6 vectors produced by pass  6 Test12= 4.69D-15 6.67D-09 XBig12= 2.28D-13 1.24D-07.
 InvSVY:  IOpt=1 It=  1 EMax= 1.44D-15
 Solved reduced A of dimension    78 with    12 vectors.
 Isotropic polarizability for W=    0.000000       18.61 Bohr**3.
 End of Minotr F.D. properties file   721 does not exist.
 End of Minotr F.D. properties file   722 does not exist.
 End of Minotr F.D. properties file   788 does not exist.
 Calling FoFJK, ICntrl=    100127 FMM=F ISym2X=0 I1Cent= 0 IOpClX= 0 NMat=1 NMatS=1 NMatT=0.
 ***** Axes restored to original set *****
 -------------------------------------------------------------------
 Center     Atomic                   Forces (Hartrees/Bohr)
 Number     Number              X              Y              Z
 -------------------------------------------------------------------
      1        7          -0.000330464   -0.000345307   -0.002172581
      2        8           0.000570217    0.000966622    0.000576328
      3        8           0.000581039    0.000718940    0.000274385
      4        8          -0.000820792   -0.001340255    0.001321869
 -------------------------------------------------------------------
 Cartesian Forces:  Max     0.002172581 RMS     0.000986885
 FormGI is forming the generalized inverse of G from B-inverse, IUseBI=4.

 GradGradGradGradGradGradGradGradGradGradGradGradGradGradGradGradGradGrad
 Berny optimization.
 Using GEDIIS/GDIIS optimizer.
 Internal  Forces:  Max     0.001892722 RMS     0.001123060
 Search for a local minimum.
 Step number   3 out of a maximum of  100
 All quantities printed in internal units (Hartrees-Bohrs-Radians)
 Mixed Optimization -- RFO/linear search
 Second derivative matrix not updated -- analytic derivatives used.
 DE= -3.20D-04 DEPred=-3.06D-04 R= 1.05D+00
 TightC=F SS=  1.41D+00  RLast= 3.63D-02 DXNew= 6.7784D-01 1.0889D-01
 Trust test= 1.05D+00 RLast= 3.63D-02 DXMaxT set to 4.03D-01
 The second derivative matrix:
                          R1        R2        R3        A1        A2
           R1           0.54154
           R2           0.07820   0.54713
           R3           0.07949   0.07910   0.55124
           A1           0.02439   0.02483  -0.05191   0.25098
           A2           0.02711  -0.05104   0.02669  -0.12600   0.25309
           A3          -0.05150   0.02621   0.02522  -0.12499  -0.12709
           D1          -0.00039  -0.00039  -0.00040   0.00031  -0.00044
                          A3        D1
           A3           0.25208
           D1          -0.00043   0.13791
 ITU=  1  1  0
 Use linear search instead of GDIIS.
     Eigenvalues ---    0.13790   0.33280   0.33436   0.51015   0.51414
     Eigenvalues ---    0.70461
 RFO step:  Lambda=-2.00956029D-05 EMin= 1.37903922D-01
 Quintic linear search produced a step of  0.03319.
 Iteration  1 RMS(Cart)=  0.00268898 RMS(Int)=  0.00000497
 Iteration  2 RMS(Cart)=  0.00000383 RMS(Int)=  0.00000214
 Iteration  3 RMS(Cart)=  0.00000000 RMS(Int)=  0.00000214
 Variable       Old X    -DE/DX   Delta X   Delta X   Delta X     New X
                                 (Linear)    (Quad)   (Total)
    R1        2.39052  -0.00027   0.00002  -0.00138  -0.00136   2.38916
    R2        2.38749   0.00079  -0.00019   0.00196   0.00177   2.38926
    R3        2.38610   0.00189   0.00104   0.00187   0.00292   2.38902
    A1        2.09761  -0.00132   0.00037  -0.00344  -0.00308   2.09452
    A2        2.09012   0.00154  -0.00037   0.00452   0.00415   2.09426
    A3        2.09546  -0.00022   0.00000  -0.00106  -0.00106   2.09440
    D1       -3.13695  -0.00064   0.00024  -0.00479  -0.00456  -3.14151
         Item               Value     Threshold  Converged?
 Maximum Force            0.001893     0.000015     NO 
 RMS     Force            0.001123     0.000010     NO 
 Maximum Displacement     0.003228     0.000060     NO 
 RMS     Displacement     0.002689     0.000040     NO 
 Predicted change in Energy=-1.050602D-05
 GradGradGradGradGradGradGradGradGradGradGradGradGradGradGradGradGradGrad

                          Input orientation:                          
 ---------------------------------------------------------------------
 Center     Atomic      Atomic             Coordinates (Angstroms)
 Number     Number       Type             X           Y           Z
 ---------------------------------------------------------------------
      1          7           0      -16.645978   19.896004   24.453263
      2          8           0      -16.138010   19.934116   23.296136
      3          8           0      -16.517267   20.882809   25.233141
      4          8           0      -17.282745   18.871071   24.830459
 ---------------------------------------------------------------------
                    Distance matrix (angstroms):
                    1          2          3          4
     1  N    0.000000
     2  O    1.264289   0.000000
     3  O    1.264342   2.189941   0.000000
     4  O    1.264214   2.189665   2.189795   0.000000
 Stoichiometry    NO3(1-)
 Framework group  C1[X(NO3)]
 Deg. of freedom     6
 Full point group                 C1      NOp   1
 Largest Abelian subgroup         C1      NOp   1
 Largest concise Abelian subgroup C1      NOp   1
                         Standard orientation:                         
 ---------------------------------------------------------------------
 Center     Atomic      Atomic             Coordinates (Angstroms)
 Number     Number       Type             X           Y           Z
 ---------------------------------------------------------------------
      1          7           0        0.000012    0.000008   -0.000022
      2          8           0       -0.909635    0.878057    0.000007
      3          8           0        1.215344    0.348617    0.000007
      4          8           0       -0.305720   -1.226681    0.000007
 ---------------------------------------------------------------------
 Rotational constants (GHZ):     13.1801278     13.1762858      6.5891033
 Standard basis: 6-31G(d) (6D, 7F)
 There are    60 symmetry adapted cartesian basis functions of A   symmetry.
 There are    60 symmetry adapted basis functions of A   symmetry.
    60 basis functions,   112 primitive gaussians,    60 cartesian basis functions
    16 alpha electrons       16 beta electrons
       nuclear repulsion energy       116.7158617083 Hartrees.
 NAtoms=    4 NActive=    4 NUniq=    4 SFac= 1.00D+00 NAtFMM=   60 NAOKFM=F Big=F
 Integral buffers will be    131072 words long.
 Raffenetti 2 integral format.
 Two-electron integral symmetry is turned on.
 One-electron integrals computed using PRISM.
 NBasis=    60 RedAO= T EigKep=  4.35D-03  NBF=    60
 NBsUse=    60 1.00D-06 EigRej= -1.00D+00 NBFU=    60
 Initial guess from the checkpoint file:  "no3.chk"
 B after Tr=    -0.000000   -0.000000    0.000000
         Rot=    0.999593    0.000000   -0.000000    0.028520 Ang=   3.27 deg.
 Keep R1 ints in memory in canonical form, NReq=2586869.
 Requested convergence on RMS density matrix=1.00D-08 within 128 cycles.
 Requested convergence on MAX density matrix=1.00D-06.
 Requested convergence on             energy=1.00D-06.
 No special actions if energy rises.
 SCF Done:  E(RB3LYP) =  -280.335868187     A.U. after    9 cycles
            NFock=  9  Conv=0.67D-08     -V/T= 2.0077
 DoSCS=F DFT=T ScalE2(SS,OS)=  1.000000  1.000000
 Range of M.O.s used for correlation:     1    60
 NBasis=    60 NAE=    16 NBE=    16 NFC=     0 NFV=     0
 NROrb=     60 NOA=    16 NOB=    16 NVA=    44 NVB=    44
 Symmetrizing basis deriv contribution to polar:
 IMax=3 JMax=2 DiffMx= 0.00D+00
 G2DrvN: will do     5 centers at a time, making    1 passes.
 Calling FoFCou, ICntrl=  3107 FMM=F I1Cent=   0 AccDes= 0.00D+00.
 End of G2Drv F.D. properties file   721 does not exist.
 End of G2Drv F.D. properties file   722 does not exist.
 End of G2Drv F.D. properties file   788 does not exist.
          IDoAtm=1111
          Differentiating once with respect to electric field.
                with respect to dipole field.
          Differentiating once with respect to nuclear coordinates.
 Keep R1 ints in memory in canonical form, NReq=2556468.
          There are    15 degrees of freedom in the 1st order CPHF.  IDoFFX=6 NUNeed=     3.
     12 vectors produced by pass  0 Test12= 4.69D-15 6.67D-09 XBig12= 2.91D+01 4.64D+00.
 AX will form    12 AO Fock derivatives at one time.
     12 vectors produced by pass  1 Test12= 4.69D-15 6.67D-09 XBig12= 9.81D+00 8.02D-01.
     12 vectors produced by pass  2 Test12= 4.69D-15 6.67D-09 XBig12= 4.85D-02 8.70D-02.
     12 vectors produced by pass  3 Test12= 4.69D-15 6.67D-09 XBig12= 3.32D-04 7.76D-03.
     12 vectors produced by pass  4 Test12= 4.69D-15 6.67D-09 XBig12= 4.06D-07 1.82D-04.
     12 vectors produced by pass  5 Test12= 4.69D-15 6.67D-09 XBig12= 3.56D-10 6.50D-06.
      6 vectors produced by pass  6 Test12= 4.69D-15 6.67D-09 XBig12= 7.81D-13 7.71D-07.
      1 vectors produced by pass  7 Test12= 4.69D-15 6.67D-09 XBig12= 1.86D-15 9.42D-09.
 InvSVY:  IOpt=1 It=  1 EMax= 2.00D-15
 Solved reduced A of dimension    79 with    12 vectors.
 Isotropic polarizability for W=    0.000000       18.62 Bohr**3.
 End of Minotr F.D. properties file   721 does not exist.
 End of Minotr F.D. properties file   722 does not exist.
 End of Minotr F.D. properties file   788 does not exist.
 Calling FoFJK, ICntrl=    100127 FMM=F ISym2X=0 I1Cent= 0 IOpClX= 0 NMat=1 NMatS=1 NMatT=0.
 ***** Axes restored to original set *****
 -------------------------------------------------------------------
 Center     Atomic                   Forces (Hartrees/Bohr)
 Number     Number              X              Y              Z
 -------------------------------------------------------------------
      1        7           0.000010412    0.000025104   -0.000040799
      2        8          -0.000000016    0.000029924    0.000047485
      3        8           0.000027906    0.000018472   -0.000030970
      4        8          -0.000038303   -0.000073500    0.000024284
 -------------------------------------------------------------------
 Cartesian Forces:  Max     0.000073500 RMS     0.000035463
 FormGI is forming the generalized inverse of G from B-inverse, IUseBI=4.

 GradGradGradGradGradGradGradGradGradGradGradGradGradGradGradGradGradGrad
 Berny optimization.
 Using GEDIIS/GDIIS optimizer.
 Internal  Forces:  Max     0.000086126 RMS     0.000047436
 Search for a local minimum.
 Step number   4 out of a maximum of  100
 All quantities printed in internal units (Hartrees-Bohrs-Radians)
 Mixed Optimization -- En-DIIS/RFO-DIIS
 Second derivative matrix not updated -- analytic derivatives used.
 DE= -9.81D-06 DEPred=-1.05D-05 R= 9.34D-01
 TightC=F SS=  1.41D+00  RLast= 7.88D-03 DXNew= 6.7784D-01 2.3645D-02
 Trust test= 9.34D-01 RLast= 7.88D-03 DXMaxT set to 4.03D-01
 The second derivative matrix:
                          R1        R2        R3        A1        A2
           R1           0.54406
           R2           0.07870   0.54370
           R3           0.07878   0.07872   0.54433
           A1           0.02564   0.02561  -0.05130   0.25156
           A2           0.02576  -0.05122   0.02574  -0.12569   0.25158
           A3          -0.05139   0.02561   0.02557  -0.12587  -0.12589
           D1          -0.00001  -0.00001  -0.00001   0.00001  -0.00001
                          A3        D1
           A3           0.25176
           D1          -0.00001   0.13719
 ITU=  1  1  1  0
 Use linear search instead of GDIIS.
     Eigenvalues ---    0.13719   0.33263   0.33290   0.50988   0.51009
     Eigenvalues ---    0.70150
 RFO step:  Lambda=-1.43446373D-08 EMin= 1.37187653D-01
 Quintic linear search produced a step of  0.02900.
 Iteration  1 RMS(Cart)=  0.00011304 RMS(Int)=  0.00000006
 Iteration  2 RMS(Cart)=  0.00000000 RMS(Int)=  0.00000006
 Variable       Old X    -DE/DX   Delta X   Delta X   Delta X     New X
                                 (Linear)    (Quad)   (Total)
    R1        2.38916  -0.00004  -0.00004  -0.00005  -0.00009   2.38907
    R2        2.38926  -0.00000   0.00005  -0.00006  -0.00001   2.38925
    R3        2.38902   0.00009   0.00008   0.00007   0.00015   2.38917
    A1        2.09452  -0.00006  -0.00009  -0.00005  -0.00014   2.09438
    A2        2.09426   0.00003   0.00012  -0.00006   0.00006   2.09432
    A3        2.09440   0.00004  -0.00003   0.00012   0.00009   2.09448
    D1       -3.14151  -0.00001  -0.00013   0.00007  -0.00006  -3.14157
         Item               Value     Threshold  Converged?
 Maximum Force            0.000086     0.000015     NO 
 RMS     Force            0.000047     0.000010     NO 
 Maximum Displacement     0.000161     0.000060     NO 
 RMS     Displacement     0.000113     0.000040     NO 
 Predicted change in Energy=-1.588897D-08
 GradGradGradGradGradGradGradGradGradGradGradGradGradGradGradGradGradGrad

                          Input orientation:                          
 ---------------------------------------------------------------------
 Center     Atomic      Atomic             Coordinates (Angstroms)
 Number     Number       Type             X           Y           Z
 ---------------------------------------------------------------------
      1          7           0      -16.645998   19.895998   24.453257
      2          8           0      -16.138000   19.934178   23.296196
      3          8           0      -16.517218   20.882839   25.233072
      4          8           0      -17.282784   18.870986   24.830474
 ---------------------------------------------------------------------
                    Distance matrix (angstroms):
                    1          2          3          4
     1  N    0.000000
     2  O    1.264243   0.000000
     3  O    1.264338   2.189806   0.000000
     4  O    1.264294   2.189730   2.189915   0.000000
 Stoichiometry    NO3(1-)
 Framework group  C1[X(NO3)]
 Deg. of freedom     6
 Full point group                 C1      NOp   1
 Largest Abelian subgroup         C1      NOp   1
 Largest concise Abelian subgroup C1      NOp   1
                         Standard orientation:                         
 ---------------------------------------------------------------------
 Center     Atomic      Atomic             Coordinates (Angstroms)
 Number     Number       Type             X           Y           Z
 ---------------------------------------------------------------------
      1          7           0        0.000001   -0.000006   -0.000005
      2          8           0       -0.263653    1.236439    0.000002
      3          8           0        1.202717   -0.389910    0.000002
      4          8           0       -0.939065   -0.846524    0.000002
 ---------------------------------------------------------------------
 Rotational constants (GHZ):     13.1792959     13.1767085      6.5890010
 Standard basis: 6-31G(d) (6D, 7F)
 There are    60 symmetry adapted cartesian basis functions of A   symmetry.
 There are    60 symmetry adapted basis functions of A   symmetry.
    60 basis functions,   112 primitive gaussians,    60 cartesian basis functions
    16 alpha electrons       16 beta electrons
       nuclear repulsion energy       116.7149560548 Hartrees.
 NAtoms=    4 NActive=    4 NUniq=    4 SFac= 1.00D+00 NAtFMM=   60 NAOKFM=F Big=F
 Integral buffers will be    131072 words long.
 Raffenetti 2 integral format.
 Two-electron integral symmetry is turned on.
 One-electron integrals computed using PRISM.
 NBasis=    60 RedAO= T EigKep=  4.35D-03  NBF=    60
 NBsUse=    60 1.00D-06 EigRej= -1.00D+00 NBFU=    60
 Initial guess from the checkpoint file:  "no3.chk"
 B after Tr=     0.000000    0.000000    0.000000
         Rot=    0.956377    0.000000   -0.000000    0.292134 Ang=  33.97 deg.
 Keep R1 ints in memory in canonical form, NReq=2586869.
 Requested convergence on RMS density matrix=1.00D-08 within 128 cycles.
 Requested convergence on MAX density matrix=1.00D-06.
 Requested convergence on             energy=1.00D-06.
 No special actions if energy rises.
 SCF Done:  E(RB3LYP) =  -280.335868756     A.U. after    6 cycles
            NFock=  6  Conv=0.80D-08     -V/T= 2.0077
 DoSCS=F DFT=T ScalE2(SS,OS)=  1.000000  1.000000
 Range of M.O.s used for correlation:     1    60
 NBasis=    60 NAE=    16 NBE=    16 NFC=     0 NFV=     0
 NROrb=     60 NOA=    16 NOB=    16 NVA=    44 NVB=    44
 Symmetrizing basis deriv contribution to polar:
 IMax=3 JMax=2 DiffMx= 0.00D+00
 G2DrvN: will do     5 centers at a time, making    1 passes.
 Calling FoFCou, ICntrl=  3107 FMM=F I1Cent=   0 AccDes= 0.00D+00.
 End of G2Drv F.D. properties file   721 does not exist.
 End of G2Drv F.D. properties file   722 does not exist.
 End of G2Drv F.D. properties file   788 does not exist.
          IDoAtm=1111
          Differentiating once with respect to electric field.
                with respect to dipole field.
          Differentiating once with respect to nuclear coordinates.
 Keep R1 ints in memory in canonical form, NReq=2556468.
          There are    15 degrees of freedom in the 1st order CPHF.  IDoFFX=6 NUNeed=     3.
     12 vectors produced by pass  0 Test12= 4.69D-15 6.67D-09 XBig12= 2.91D+01 4.77D+00.
 AX will form    12 AO Fock derivatives at one time.
     12 vectors produced by pass  1 Test12= 4.69D-15 6.67D-09 XBig12= 9.81D+00 8.24D-01.
     12 vectors produced by pass  2 Test12= 4.69D-15 6.67D-09 XBig12= 4.85D-02 8.69D-02.
     12 vectors produced by pass  3 Test12= 4.69D-15 6.67D-09 XBig12= 3.32D-04 7.75D-03.
     12 vectors produced by pass  4 Test12= 4.69D-15 6.67D-09 XBig12= 4.06D-07 1.86D-04.
     12 vectors produced by pass  5 Test12= 4.69D-15 6.67D-09 XBig12= 3.58D-10 1.11D-05.
      6 vectors produced by pass  6 Test12= 4.69D-15 6.67D-09 XBig12= 1.77D-12 5.13D-07.
      1 vectors produced by pass  7 Test12= 4.69D-15 6.67D-09 XBig12= 9.24D-16 7.42D-09.
 InvSVY:  IOpt=1 It=  1 EMax= 8.88D-16
 Solved reduced A of dimension    79 with    12 vectors.
 Isotropic polarizability for W=    0.000000       18.62 Bohr**3.
 End of Minotr F.D. properties file   721 does not exist.
 End of Minotr F.D. properties file   722 does not exist.
 End of Minotr F.D. properties file   788 does not exist.
 Calling FoFJK, ICntrl=    100127 FMM=F ISym2X=0 I1Cent= 0 IOpClX= 0 NMat=1 NMatS=1 NMatT=0.
 ***** Axes restored to original set *****
 -------------------------------------------------------------------
 Center     Atomic                   Forces (Hartrees/Bohr)
 Number     Number              X              Y              Z
 -------------------------------------------------------------------
      1        7          -0.000007661   -0.000016785   -0.000010850
      2        8          -0.000000207   -0.000011093   -0.000008195
      3        8          -0.000006047    0.000007660    0.000026186
      4        8           0.000013915    0.000020218   -0.000007142
 -------------------------------------------------------------------
 Cartesian Forces:  Max     0.000026186 RMS     0.000013174
 FormGI is forming the generalized inverse of G from B-inverse, IUseBI=4.

 GradGradGradGradGradGradGradGradGradGradGradGradGradGradGradGradGradGrad
 Berny optimization.
 Using GEDIIS/GDIIS optimizer.
 Internal  Forces:  Max     0.000025531 RMS     0.000016965
 Search for a local minimum.
 Step number   5 out of a maximum of  100
 All quantities printed in internal units (Hartrees-Bohrs-Radians)
 Mixed Optimization -- En-DIIS/RFO-DIIS
 Swapping is turned off.
 Second derivative matrix not updated -- analytic derivatives used.
 DE= -5.69D-07 DEPred=-1.59D-08 R= 3.58D+01
 Trust test= 3.58D+01 RLast= 2.57D-04 DXMaxT set to 4.03D-01
 The second derivative matrix:
                          R1        R2        R3        A1        A2
           R1           0.54421
           R2           0.07871   0.54361
           R3           0.07876   0.07869   0.54394
           A1           0.02562   0.02560  -0.05134   0.25164
           A2           0.02572  -0.05118   0.02568  -0.12575   0.25148
           A3          -0.05134   0.02557   0.02566  -0.12589  -0.12573
           D1          -0.00000  -0.00000  -0.00000   0.00000  -0.00000
                          A3        D1
           A3           0.25161
           D1          -0.00000   0.13713
 ITU=  0  1  1  1  0
     Eigenvalues ---    0.13713   0.33261   0.33280   0.50969   0.51004
     Eigenvalues ---    0.70136
 En-DIIS/RFO-DIIS IScMMF=        0 using points:     5    4
 RFO step:  Lambda= 0.00000000D+00.
 DidBck=T Rises=F RFO-DIIS coefs:    0.75197    0.24803
 Iteration  1 RMS(Cart)=  0.00003060 RMS(Int)=  0.00000000
 Iteration  2 RMS(Cart)=  0.00000000 RMS(Int)=  0.00000001
 Variable       Old X    -DE/DX   Delta X   Delta X   Delta X     New X
                                 (Linear)    (Quad)   (Total)
    R1        2.38907   0.00001   0.00002  -0.00002   0.00001   2.38908
    R2        2.38925   0.00002   0.00000   0.00003   0.00003   2.38929
    R3        2.38917  -0.00003  -0.00004   0.00000  -0.00004   2.38913
    A1        2.09438   0.00002   0.00004   0.00000   0.00004   2.09442
    A2        2.09432  -0.00001  -0.00001   0.00000  -0.00001   2.09431
    A3        2.09448  -0.00001  -0.00002  -0.00001  -0.00003   2.09445
    D1       -3.14157  -0.00000   0.00001  -0.00003  -0.00002   3.14159
         Item               Value     Threshold  Converged?
 Maximum Force            0.000026     0.000015     NO 
 RMS     Force            0.000017     0.000010     NO 
 Maximum Displacement     0.000048     0.000060     YES
 RMS     Displacement     0.000031     0.000040     YES
 Predicted change in Energy=-1.944486D-09
 GradGradGradGradGradGradGradGradGradGradGradGradGradGradGradGradGradGrad

                          Input orientation:                          
 ---------------------------------------------------------------------
 Center     Atomic      Atomic             Coordinates (Angstroms)
 Number     Number       Type             X           Y           Z
 ---------------------------------------------------------------------
      1          7           0      -16.646000   19.896000   24.453249
      2          8           0      -16.138002   19.934159   23.296184
      3          8           0      -16.517227   20.882838   25.233097
      4          8           0      -17.282772   18.871004   24.830470
 ---------------------------------------------------------------------
                    Distance matrix (angstroms):
                    1          2          3          4
     1  N    0.000000
     2  O    1.264246   0.000000
     3  O    1.264356   2.189849   0.000000
     4  O    1.264275   2.189710   2.189896   0.000000
 Stoichiometry    NO3(1-)
 Framework group  C1[X(NO3)]
 Deg. of freedom     6
 Full point group                 C1      NOp   1
 Largest Abelian subgroup         C1      NOp   1
 Largest concise Abelian subgroup C1      NOp   1
                         Standard orientation:                         
 ---------------------------------------------------------------------
 Center     Atomic      Atomic             Coordinates (Angstroms)
 Number     Number       Type             X           Y           Z
 ---------------------------------------------------------------------
      1          7           0       -0.000001    0.000001    0.000000
      2          8           0       -0.492765    1.164261    0.000000
      3          8           0        1.254765   -0.155427    0.000000
      4          8           0       -0.761999   -1.008835    0.000000
 ---------------------------------------------------------------------
 Rotational constants (GHZ):     13.1793317     13.1766414      6.5889932
 Standard basis: 6-31G(d) (6D, 7F)
 There are    60 symmetry adapted cartesian basis functions of A   symmetry.
 There are    60 symmetry adapted basis functions of A   symmetry.
    60 basis functions,   112 primitive gaussians,    60 cartesian basis functions
    16 alpha electrons       16 beta electrons
       nuclear repulsion energy       116.7148865767 Hartrees.
 NAtoms=    4 NActive=    4 NUniq=    4 SFac= 1.00D+00 NAtFMM=   60 NAOKFM=F Big=F
 Integral buffers will be    131072 words long.
 Raffenetti 2 integral format.
 Two-electron integral symmetry is turned on.
 One-electron integrals computed using PRISM.
 NBasis=    60 RedAO= T EigKep=  4.35D-03  NBF=    60
 NBsUse=    60 1.00D-06 EigRej= -1.00D+00 NBFU=    60
 Initial guess from the checkpoint file:  "no3.chk"
 B after Tr=    -0.000000   -0.000000   -0.000000
         Rot=    0.995478   -0.000000   -0.000000   -0.094995 Ang= -10.90 deg.
 Keep R1 ints in memory in canonical form, NReq=2586869.
 Requested convergence on RMS density matrix=1.00D-08 within 128 cycles.
 Requested convergence on MAX density matrix=1.00D-06.
 Requested convergence on             energy=1.00D-06.
 No special actions if energy rises.
 SCF Done:  E(RB3LYP) =  -280.335867208     A.U. after    5 cycles
            NFock=  5  Conv=0.56D-08     -V/T= 2.0077
 DoSCS=F DFT=T ScalE2(SS,OS)=  1.000000  1.000000
 Range of M.O.s used for correlation:     1    60
 NBasis=    60 NAE=    16 NBE=    16 NFC=     0 NFV=     0
 NROrb=     60 NOA=    16 NOB=    16 NVA=    44 NVB=    44
 Symmetrizing basis deriv contribution to polar:
 IMax=3 JMax=2 DiffMx= 0.00D+00
 G2DrvN: will do     5 centers at a time, making    1 passes.
 Calling FoFCou, ICntrl=  3107 FMM=F I1Cent=   0 AccDes= 0.00D+00.
 End of G2Drv F.D. properties file   721 does not exist.
 End of G2Drv F.D. properties file   722 does not exist.
 End of G2Drv F.D. properties file   788 does not exist.
          IDoAtm=1111
          Differentiating once with respect to electric field.
                with respect to dipole field.
          Differentiating once with respect to nuclear coordinates.
 Keep R1 ints in memory in canonical form, NReq=2556468.
          There are    15 degrees of freedom in the 1st order CPHF.  IDoFFX=6 NUNeed=     3.
     12 vectors produced by pass  0 Test12= 4.69D-15 6.67D-09 XBig12= 2.91D+01 4.78D+00.
 AX will form    12 AO Fock derivatives at one time.
     12 vectors produced by pass  1 Test12= 4.69D-15 6.67D-09 XBig12= 9.81D+00 8.27D-01.
     12 vectors produced by pass  2 Test12= 4.69D-15 6.67D-09 XBig12= 4.85D-02 8.73D-02.
     12 vectors produced by pass  3 Test12= 4.69D-15 6.67D-09 XBig12= 3.32D-04 7.79D-03.
     12 vectors produced by pass  4 Test12= 4.69D-15 6.67D-09 XBig12= 6.30D-07 2.98D-04.
     12 vectors produced by pass  5 Test12= 4.69D-15 6.67D-09 XBig12= 9.03D-09 3.29D-05.
      7 vectors produced by pass  6 Test12= 4.69D-15 6.67D-09 XBig12= 1.92D-11 1.41D-06.
      1 vectors produced by pass  7 Test12= 4.69D-15 6.67D-09 XBig12= 9.72D-15 3.19D-08.
 InvSVY:  IOpt=1 It=  1 EMax= 9.99D-16
 Solved reduced A of dimension    80 with    12 vectors.
 Isotropic polarizability for W=    0.000000       18.62 Bohr**3.
 End of Minotr F.D. properties file   721 does not exist.
 End of Minotr F.D. properties file   722 does not exist.
 End of Minotr F.D. properties file   788 does not exist.
 Calling FoFJK, ICntrl=    100127 FMM=F ISym2X=0 I1Cent= 0 IOpClX= 0 NMat=1 NMatS=1 NMatT=0.
 ***** Axes restored to original set *****
 -------------------------------------------------------------------
 Center     Atomic                   Forces (Hartrees/Bohr)
 Number     Number              X              Y              Z
 -------------------------------------------------------------------
      1        7           0.000008034    0.000052052    0.000038211
      2        8           0.000041303    0.000061857   -0.000029552
      3        8          -0.000008608   -0.000081424   -0.000069109
      4        8          -0.000040729   -0.000032485    0.000060450
 -------------------------------------------------------------------
 Cartesian Forces:  Max     0.000081424 RMS     0.000048724
 FormGI is forming the generalized inverse of G from B-inverse, IUseBI=4.

 GradGradGradGradGradGradGradGradGradGradGradGradGradGradGradGradGradGrad
 Berny optimization.
 Using GEDIIS/GDIIS optimizer.
 Internal  Forces:  Max     0.000107055 RMS     0.000065454
 Search for a local minimum.
 Step number   6 out of a maximum of  100
 All quantities printed in internal units (Hartrees-Bohrs-Radians)
 Mixed Optimization -- En-DIIS/RFO-DIIS
 Swapping is turned off.
 Second derivative matrix not updated -- analytic derivatives used.
 DE=  1.55D-06 DEPred=-1.94D-09 R=-7.96D+02
 Trust test=-7.96D+02 RLast= 7.22D-05 DXMaxT set to 2.02D-01
 The second derivative matrix:
                          R1        R2        R3        A1        A2
           R1           0.54403
           R2           0.07873   0.54371
           R3           0.07872   0.07870   0.54391
           A1           0.02563   0.02576  -0.05122   0.25146
           A2           0.02569  -0.05139   0.02570  -0.12575   0.25163
           A3          -0.05132   0.02563   0.02551  -0.12572  -0.12589
           D1          -0.00000  -0.00000  -0.00000  -0.00000   0.00000
                          A3        D1
           A3           0.25161
           D1           0.00000   0.13701
 ITU= -1  0  1  1  1  0
     Eigenvalues ---    0.13701   0.33253   0.33277   0.50979   0.50994
     Eigenvalues ---    0.70132
 En-DIIS/RFO-DIIS IScMMF=        0 using points:     6    5    4
 RFO step:  Lambda=-4.22741082D-08.
 DidBck=T Rises=F RFO-DIIS coefs:    0.08031    0.73199    0.18769
 Iteration  1 RMS(Cart)=  0.00001150 RMS(Int)=  0.00000000
 Iteration  2 RMS(Cart)=  0.00000000 RMS(Int)=  0.00000000
 Variable       Old X    -DE/DX   Delta X   Delta X   Delta X     New X
                                 (Linear)    (Quad)   (Total)
    R1        2.38908   0.00005   0.00001  -0.00000   0.00001   2.38909
    R2        2.38929  -0.00011  -0.00003   0.00001  -0.00001   2.38927
    R3        2.38913   0.00006   0.00000   0.00000   0.00001   2.38914
    A1        2.09442  -0.00006  -0.00001   0.00000  -0.00001   2.09441
    A2        2.09431   0.00009  -0.00000   0.00002   0.00001   2.09433
    A3        2.09445  -0.00003   0.00001  -0.00002  -0.00001   2.09445
    D1       -3.14159   0.00000   0.00003  -0.00003  -0.00000   3.14159
         Item               Value     Threshold  Converged?
 Maximum Force            0.000107     0.000015     NO 
 RMS     Force            0.000065     0.000010     NO 
 Maximum Displacement     0.000016     0.000060     YES
 RMS     Displacement     0.000011     0.000040     YES
 Predicted change in Energy=-4.197362D-09
 GradGradGradGradGradGradGradGradGradGradGradGradGradGradGradGradGradGrad

                          Input orientation:                          
 ---------------------------------------------------------------------
 Center     Atomic      Atomic             Coordinates (Angstroms)
 Number     Number       Type             X           Y           Z
 ---------------------------------------------------------------------
      1          7           0      -16.646000   19.895999   24.453248
      2          8           0      -16.137997   19.934167   23.296181
      3          8           0      -16.517228   20.882831   25.233092
      4          8           0      -17.282775   18.871003   24.830478
 ---------------------------------------------------------------------
                    Distance matrix (angstroms):
                    1          2          3          4
     1  N    0.000000
     2  O    1.264250   0.000000
     3  O    1.264348   2.189841   0.000000
     4  O    1.264279   2.189726   2.189889   0.000000
 Stoichiometry    NO3(1-)
 Framework group  C1[X(NO3)]
 Deg. of freedom     6
 Full point group                 C1      NOp   1
 Largest Abelian subgroup         C1      NOp   1
 Largest concise Abelian subgroup C1      NOp   1
                         Standard orientation:                         
 ---------------------------------------------------------------------
 Center     Atomic      Atomic             Coordinates (Angstroms)
 Number     Number       Type             X           Y           Z
 ---------------------------------------------------------------------
      1          7           0       -0.000002    0.000001    0.000000
      2          8           0       -0.466577    1.175005    0.000000
      3          8           0        1.250963   -0.183471    0.000000
      4          8           0       -0.784385   -0.991535    0.000000
 ---------------------------------------------------------------------
 Rotational constants (GHZ):     13.1791455     13.1768246      6.5889925
 Standard basis: 6-31G(d) (6D, 7F)
 There are    60 symmetry adapted cartesian basis functions of A   symmetry.
 There are    60 symmetry adapted basis functions of A   symmetry.
    60 basis functions,   112 primitive gaussians,    60 cartesian basis functions
    16 alpha electrons       16 beta electrons
       nuclear repulsion energy       116.7148802777 Hartrees.
 NAtoms=    4 NActive=    4 NUniq=    4 SFac= 1.00D+00 NAtFMM=   60 NAOKFM=F Big=F
 Integral buffers will be    131072 words long.
 Raffenetti 2 integral format.
 Two-electron integral symmetry is turned on.
 One-electron integrals computed using PRISM.
 NBasis=    60 RedAO= T EigKep=  4.35D-03  NBF=    60
 NBsUse=    60 1.00D-06 EigRej= -1.00D+00 NBFU=    60
 Initial guess from the checkpoint file:  "no3.chk"
 B after Tr=    -0.000000    0.000000    0.000000
         Rot=    0.999937   -0.000000   -0.000000    0.011192 Ang=   1.28 deg.
 Keep R1 ints in memory in canonical form, NReq=2586869.
 Requested convergence on RMS density matrix=1.00D-08 within 128 cycles.
 Requested convergence on MAX density matrix=1.00D-06.
 Requested convergence on             energy=1.00D-06.
 No special actions if energy rises.
 SCF Done:  E(RB3LYP) =  -280.335868029     A.U. after    5 cycles
            NFock=  5  Conv=0.22D-08     -V/T= 2.0077
 DoSCS=F DFT=T ScalE2(SS,OS)=  1.000000  1.000000
 Range of M.O.s used for correlation:     1    60
 NBasis=    60 NAE=    16 NBE=    16 NFC=     0 NFV=     0
 NROrb=     60 NOA=    16 NOB=    16 NVA=    44 NVB=    44
 Symmetrizing basis deriv contribution to polar:
 IMax=3 JMax=2 DiffMx= 0.00D+00
 G2DrvN: will do     5 centers at a time, making    1 passes.
 Calling FoFCou, ICntrl=  3107 FMM=F I1Cent=   0 AccDes= 0.00D+00.
 End of G2Drv F.D. properties file   721 does not exist.
 End of G2Drv F.D. properties file   722 does not exist.
 End of G2Drv F.D. properties file   788 does not exist.
          IDoAtm=1111
          Differentiating once with respect to electric field.
                with respect to dipole field.
          Differentiating once with respect to nuclear coordinates.
 Keep R1 ints in memory in canonical form, NReq=2556468.
          There are    15 degrees of freedom in the 1st order CPHF.  IDoFFX=6 NUNeed=     3.
     12 vectors produced by pass  0 Test12= 4.69D-15 6.67D-09 XBig12= 2.91D+01 4.79D+00.
 AX will form    12 AO Fock derivatives at one time.
     12 vectors produced by pass  1 Test12= 4.69D-15 6.67D-09 XBig12= 9.81D+00 8.28D-01.
     12 vectors produced by pass  2 Test12= 4.69D-15 6.67D-09 XBig12= 4.85D-02 8.76D-02.
     12 vectors produced by pass  3 Test12= 4.69D-15 6.67D-09 XBig12= 3.32D-04 7.81D-03.
     12 vectors produced by pass  4 Test12= 4.69D-15 6.67D-09 XBig12= 5.64D-07 2.82D-04.
     12 vectors produced by pass  5 Test12= 4.69D-15 6.67D-09 XBig12= 8.03D-09 3.12D-05.
      7 vectors produced by pass  6 Test12= 4.69D-15 6.67D-09 XBig12= 1.69D-11 1.32D-06.
      1 vectors produced by pass  7 Test12= 4.69D-15 6.67D-09 XBig12= 8.68D-15 2.99D-08.
 InvSVY:  IOpt=1 It=  1 EMax= 1.11D-15
 Solved reduced A of dimension    80 with    12 vectors.
 Isotropic polarizability for W=    0.000000       18.62 Bohr**3.
 End of Minotr F.D. properties file   721 does not exist.
 End of Minotr F.D. properties file   722 does not exist.
 End of Minotr F.D. properties file   788 does not exist.
 Calling FoFJK, ICntrl=    100127 FMM=F ISym2X=0 I1Cent= 0 IOpClX= 0 NMat=1 NMatS=1 NMatT=0.
 ***** Axes restored to original set *****
 -------------------------------------------------------------------
 Center     Atomic                   Forces (Hartrees/Bohr)
 Number     Number              X              Y              Z
 -------------------------------------------------------------------
      1        7           0.000001293    0.000054662    0.000056996
      2        8           0.000049108    0.000058954   -0.000051166
      3        8          -0.000015260   -0.000095230   -0.000068574
      4        8          -0.000035141   -0.000018386    0.000062743
 -------------------------------------------------------------------
 Cartesian Forces:  Max     0.000095230 RMS     0.000053430
 FormGI is forming the generalized inverse of G from B-inverse, IUseBI=4.

 GradGradGradGradGradGradGradGradGradGradGradGradGradGradGradGradGradGrad
 Berny optimization.
 Using GEDIIS/GDIIS optimizer.
 Internal  Forces:  Max     0.000118178 RMS     0.000069670
 Search for a local minimum.
 Step number   7 out of a maximum of  100
 All quantities printed in internal units (Hartrees-Bohrs-Radians)
 Mixed Optimization -- En-DIIS/RFO-DIIS
 Swapping is turned off.
 Second derivative matrix not updated -- analytic derivatives used.
 DE= -8.21D-07 DEPred=-4.20D-09 R= 1.96D+02
 Trust test= 1.96D+02 RLast= 2.54D-05 DXMaxT set to 2.02D-01
 The second derivative matrix:
                          R1        R2        R3        A1        A2
           R1           0.54395
           R2           0.07872   0.54376
           R3           0.07872   0.07871   0.54387
           A1           0.02560   0.02575  -0.05123   0.25145
           A2           0.02565  -0.05139   0.02572  -0.12578   0.25164
           A3          -0.05126   0.02564   0.02551  -0.12567  -0.12586
           D1           0.00000   0.00000   0.00000  -0.00000   0.00000
                          A3        D1
           A3           0.25153
           D1           0.00000   0.13703
 ITU=  0 -1  0  1  1  1  0
     Eigenvalues ---    0.13703   0.33254   0.33273   0.50969   0.50993
     Eigenvalues ---    0.70129
 En-DIIS/RFO-DIIS IScMMF=        0 using points:     7    6    5    4
 RFO step:  Lambda=-4.77832263D-08.
 DidBck=T Rises=F RFO-DIIS coefs:   -0.02775    0.11183    0.73513    0.18079
 Iteration  1 RMS(Cart)=  0.00000064 RMS(Int)=  0.00000000
 Variable       Old X    -DE/DX   Delta X   Delta X   Delta X     New X
                                 (Linear)    (Quad)   (Total)
    R1        2.38909   0.00007   0.00000  -0.00000  -0.00000   2.38908
    R2        2.38927  -0.00012  -0.00001   0.00001   0.00000   2.38927
    R3        2.38914   0.00005  -0.00000   0.00000   0.00000   2.38914
    A1        2.09441  -0.00004  -0.00000   0.00000  -0.00000   2.09441
    A2        2.09433   0.00009  -0.00002   0.00002   0.00000   2.09433
    A3        2.09445  -0.00005   0.00002  -0.00002   0.00000   2.09445
    D1        3.14159   0.00000   0.00003  -0.00003   0.00000   3.14159
         Item               Value     Threshold  Converged?
 Maximum Force            0.000118     0.000015     NO 
 RMS     Force            0.000070     0.000010     NO 
 Maximum Displacement     0.000001     0.000060     YES
 RMS     Displacement     0.000001     0.000040     YES
 Predicted change in Energy=-8.742806D-11
 GradGradGradGradGradGradGradGradGradGradGradGradGradGradGradGradGradGrad

                          Input orientation:                          
 ---------------------------------------------------------------------
 Center     Atomic      Atomic             Coordinates (Angstroms)
 Number     Number       Type             X           Y           Z
 ---------------------------------------------------------------------
      1          7           0      -16.646000   19.895999   24.453248
      2          8           0      -16.137997   19.934167   23.296182
      3          8           0      -16.517227   20.882832   25.233092
      4          8           0      -17.282776   18.871003   24.830478
 ---------------------------------------------------------------------
                    Distance matrix (angstroms):
                    1          2          3          4
     1  N    0.000000
     2  O    1.264249   0.000000
     3  O    1.264348   2.189840   0.000000
     4  O    1.264279   2.189726   2.189890   0.000000
 Stoichiometry    NO3(1-)
 Framework group  C1[X(NO3)]
 Deg. of freedom     6
 Full point group                 C1      NOp   1
 Largest Abelian subgroup         C1      NOp   1
 Largest concise Abelian subgroup C1      NOp   1
                         Standard orientation:                         
 ---------------------------------------------------------------------
 Center     Atomic      Atomic             Coordinates (Angstroms)
 Number     Number       Type             X           Y           Z
 ---------------------------------------------------------------------
      1          7           0       -0.000002    0.000001    0.000000
      2          8           0       -0.461748    1.176911    0.000000
      3          8           0        1.250200   -0.188605    0.000000
      4          8           0       -0.788450   -0.988307    0.000000
 ---------------------------------------------------------------------
 Rotational constants (GHZ):     13.1791499     13.1768196      6.5889923
 Standard basis: 6-31G(d) (6D, 7F)
 There are    60 symmetry adapted cartesian basis functions of A   symmetry.
 There are    60 symmetry adapted basis functions of A   symmetry.
    60 basis functions,   112 primitive gaussians,    60 cartesian basis functions
    16 alpha electrons       16 beta electrons
       nuclear repulsion energy       116.7148789049 Hartrees.
 NAtoms=    4 NActive=    4 NUniq=    4 SFac= 1.00D+00 NAtFMM=   60 NAOKFM=F Big=F
 Integral buffers will be    131072 words long.
 Raffenetti 2 integral format.
 Two-electron integral symmetry is turned on.
 One-electron integrals computed using PRISM.
 NBasis=    60 RedAO= T EigKep=  4.35D-03  NBF=    60
 NBsUse=    60 1.00D-06 EigRej= -1.00D+00 NBFU=    60
 Initial guess from the checkpoint file:  "no3.chk"
 B after Tr=     0.000000   -0.000000   -0.000000
         Rot=    0.999998    0.000000    0.000000    0.002053 Ang=   0.24 deg.
 Keep R1 ints in memory in canonical form, NReq=2586869.
 Requested convergence on RMS density matrix=1.00D-08 within 128 cycles.
 Requested convergence on MAX density matrix=1.00D-06.
 Requested convergence on             energy=1.00D-06.
 No special actions if energy rises.
 SCF Done:  E(RB3LYP) =  -280.335868167     A.U. after    4 cycles
            NFock=  4  Conv=0.23D-08     -V/T= 2.0077
 DoSCS=F DFT=T ScalE2(SS,OS)=  1.000000  1.000000
 Range of M.O.s used for correlation:     1    60
 NBasis=    60 NAE=    16 NBE=    16 NFC=     0 NFV=     0
 NROrb=     60 NOA=    16 NOB=    16 NVA=    44 NVB=    44
 Symmetrizing basis deriv contribution to polar:
 IMax=3 JMax=2 DiffMx= 0.00D+00
 G2DrvN: will do     5 centers at a time, making    1 passes.
 Calling FoFCou, ICntrl=  3107 FMM=F I1Cent=   0 AccDes= 0.00D+00.
 End of G2Drv F.D. properties file   721 does not exist.
 End of G2Drv F.D. properties file   722 does not exist.
 End of G2Drv F.D. properties file   788 does not exist.
          IDoAtm=1111
          Differentiating once with respect to electric field.
                with respect to dipole field.
          Differentiating once with respect to nuclear coordinates.
 Keep R1 ints in memory in canonical form, NReq=2556468.
          There are    15 degrees of freedom in the 1st order CPHF.  IDoFFX=6 NUNeed=     3.
     12 vectors produced by pass  0 Test12= 4.69D-15 6.67D-09 XBig12= 2.91D+01 4.79D+00.
 AX will form    12 AO Fock derivatives at one time.
     12 vectors produced by pass  1 Test12= 4.69D-15 6.67D-09 XBig12= 9.81D+00 8.28D-01.
     12 vectors produced by pass  2 Test12= 4.69D-15 6.67D-09 XBig12= 4.85D-02 8.76D-02.
     12 vectors produced by pass  3 Test12= 4.69D-15 6.67D-09 XBig12= 3.32D-04 7.82D-03.
     12 vectors produced by pass  4 Test12= 4.69D-15 6.67D-09 XBig12= 5.52D-07 2.79D-04.
     12 vectors produced by pass  5 Test12= 4.69D-15 6.67D-09 XBig12= 7.83D-09 3.08D-05.
      7 vectors produced by pass  6 Test12= 4.69D-15 6.67D-09 XBig12= 1.64D-11 1.29D-06.
      1 vectors produced by pass  7 Test12= 4.69D-15 6.67D-09 XBig12= 8.45D-15 2.93D-08.
 InvSVY:  IOpt=1 It=  1 EMax= 8.88D-16
 Solved reduced A of dimension    80 with    12 vectors.
 Isotropic polarizability for W=    0.000000       18.62 Bohr**3.
 End of Minotr F.D. properties file   721 does not exist.
 End of Minotr F.D. properties file   722 does not exist.
 End of Minotr F.D. properties file   788 does not exist.
 Calling FoFJK, ICntrl=    100127 FMM=F ISym2X=0 I1Cent= 0 IOpClX= 0 NMat=1 NMatS=1 NMatT=0.
 ***** Axes restored to original set *****
 -------------------------------------------------------------------
 Center     Atomic                   Forces (Hartrees/Bohr)
 Number     Number              X              Y              Z
 -------------------------------------------------------------------
      1        7          -0.000000242    0.000055330    0.000061336
      2        8           0.000050793    0.000058007   -0.000056176
      3        8          -0.000016638   -0.000098166   -0.000068539
      4        8          -0.000033913   -0.000015171    0.000063380
 -------------------------------------------------------------------
 Cartesian Forces:  Max     0.000098166 RMS     0.000054721
[...]
 **** Fit      -0.117608
 **** Fit      -0.118240
 **** Fit      -0.118967
 **** Fit      -0.119794
 **** Fit      -0.120724
 **** Fit      -0.121766
 **** Fit      -0.122928
 **** Fit      -0.124222
 **** Fit      -0.125663
 **** Fit      -0.127267
 **** Fit      -0.129057
 **** Fit      -0.131057
 **** Fit      -0.133298
 **** Fit      -0.133043
 **** Fit      -0.130837
 **** Fit      -0.128867
 **** Fit      -0.127104
 **** Fit      -0.125521
 **** Fit      -0.124098
 **** Fit      -0.122819
 **** Fit      -0.121668
 **** Fit      -0.120634
 **** Fit      -0.119710
 **** Fit      -0.118887
 **** Fit      -0.118160
 **** Fit      -0.117526
 **** Fit      -0.116982
 **** Fit      -0.116525
 **** Fit      -0.116155
 **** Fit      -0.115870
 **** Fit      -0.115670
 **** Fit      -0.115554
 **** Fit      -0.115523
 **** Fit      -0.115576
 **** Fit      -0.115713
 **** Fit      -0.115935
 **** Fit      -0.116241
 **** Fit      -0.116633
 **** Fit      -0.117112
 **** Fit      -0.117679
 **** Fit      -0.118336
 **** Fit      -0.119086
 **** Fit      -0.119935
 **** Fit      -0.120886
 **** Fit      -0.121948
 **** Fit      -0.123131
 **** Fit      -0.124445
 **** Fit      -0.125907
 **** Fit      -0.127533
 **** Fit      -0.129347
 **** Fit      -0.131374
 **** Fit      -0.133645
 **** Fit      -0.133337
 **** Fit      -0.131095
 **** Fit      -0.129093
 **** Fit      -0.127302
 **** Fit      -0.125696
 **** Fit      -0.124252
 **** Fit      -0.122952
 **** Fit      -0.121782
 **** Fit      -0.120731
 **** Fit      -0.119789
 **** Fit      -0.118949
 **** Fit      -0.118206
 **** Fit      -0.117555
 **** Fit      -0.116993
 **** Fit      -0.116518
 **** Fit      -0.116129
 **** Fit      -0.115824
 **** Fit      -0.115604
 **** Fit      -0.115467
 **** Fit      -0.115414
 **** Fit      -0.115444
 **** Fit      -0.115558
 **** Fit      -0.115755
 **** Fit      -0.116036
 **** Fit      -0.116402
 **** Fit      -0.116853
 **** Fit      -0.117391
 **** Fit      -0.118017
 **** Fit      -0.118734
 **** Fit      -0.119547
 **** Fit      -0.120460
 **** Fit      -0.121480
 **** Fit      -0.122616
 **** Fit      -0.123878
 **** Fit      -0.125281
 **** Fit      -0.126841
 **** Fit      -0.128578
 **** Fit      -0.130518
 **** Fit      -0.132691
 **** Fit      -0.133438
 **** Fit      -0.131168
 **** Fit      -0.129144
 **** Fit      -0.127334
 **** Fit      -0.125712
 **** Fit      -0.124254
 **** Fit      -0.122944
 **** Fit      -0.121765
 **** Fit      -0.120705
 **** Fit      -0.119756
 **** Fit      -0.118910
 **** Fit      -0.118161
 **** Fit      -0.117505
 **** Fit      -0.116939
 **** Fit      -0.116461
 **** Fit      -0.116069
 **** Fit      -0.115762
 **** Fit      -0.115540
 **** Fit      -0.115402
 **** Fit      -0.115349
 **** Fit      -0.115379
 **** Fit      -0.115493
 **** Fit      -0.115692
 **** Fit      -0.115975
 **** Fit      -0.116344
 **** Fit      -0.116798
 **** Fit      -0.117339
 **** Fit      -0.117970
 **** Fit      -0.118693
 **** Fit      -0.119512
 **** Fit      -0.120432
 **** Fit      -0.121460
 **** Fit      -0.122605
 **** Fit      -0.123878
 **** Fit      -0.125293
 **** Fit      -0.126867
 **** Fit      -0.128623
 **** Fit      -0.130585
 **** Fit      -0.132783
 **** Fit      -0.133603
 **** Fit      -0.131333
 **** Fit      -0.129307
 **** Fit      -0.127494
 **** Fit      -0.125868
 **** Fit      -0.124407
 **** Fit      -0.123091
 **** Fit      -0.121906
 **** Fit      -0.120840
 **** Fit      -0.119883
 **** Fit      -0.119028
 **** Fit      -0.118270
 **** Fit      -0.117603
 **** Fit      -0.117025
 **** Fit      -0.116533
 **** Fit      -0.116127
 **** Fit      -0.115804
 **** Fit      -0.115564
 **** Fit      -0.115407
 **** Fit      -0.115333
 **** Fit      -0.115341
 **** Fit      -0.115431
 **** Fit      -0.115604
 **** Fit      -0.115860
 **** Fit      -0.116199
 **** Fit      -0.116622
 **** Fit      -0.117130
 **** Fit      -0.117725
 **** Fit      -0.118409
 **** Fit      -0.119186
 **** Fit      -0.120059
 **** Fit      -0.121037
 **** Fit      -0.122125
 **** Fit      -0.123334
 **** Fit      -0.124677
 **** Fit      -0.126169
 **** Fit      -0.127829
 **** Fit      -0.129680
 **** Fit      -0.131751
 **** Fit      -0.134073
 **** Fit      -0.133438
 **** Fit      -0.131168
 **** Fit      -0.129144
 **** Fit      -0.127334
 **** Fit      -0.125712
 **** Fit      -0.124254
 **** Fit      -0.122944
 **** Fit      -0.121765
 **** Fit      -0.120705
 **** Fit      -0.119756
 **** Fit      -0.118910
 **** Fit      -0.118161
 **** Fit      -0.117505
 **** Fit      -0.116939
 **** Fit      -0.116461
 **** Fit      -0.116069
 **** Fit      -0.115762
 **** Fit      -0.115540
 **** Fit      -0.115402
 **** Fit      -0.115349
 **** Fit      -0.115379
 **** Fit      -0.115493
 **** Fit      -0.115692
 **** Fit      -0.115975
 **** Fit      -0.116344
 **** Fit      -0.116798
 **** Fit      -0.117339
 **** Fit      -0.117970
 **** Fit      -0.118693
 **** Fit      -0.119512
 **** Fit      -0.120432
 **** Fit      -0.121460
 **** Fit      -0.122605
 **** Fit      -0.123878
 **** Fit      -0.125293
 **** Fit      -0.126867
 **** Fit      -0.128623
 **** Fit      -0.130585
 **** Fit      -0.132783
 **** Fit      -0.133337
 **** Fit      -0.131095
 **** Fit      -0.129093
 **** Fit      -0.127302
 **** Fit      -0.125696
 **** Fit      -0.124252
 **** Fit      -0.122952
 **** Fit      -0.121782
 **** Fit      -0.120731
 **** Fit      -0.119789
 **** Fit      -0.118949
 **** Fit      -0.118206
 **** Fit      -0.117555
 **** Fit      -0.116993
 **** Fit      -0.116518
 **** Fit      -0.116129
 **** Fit      -0.115824
 **** Fit      -0.115604
 **** Fit      -0.115467
 **** Fit      -0.115414
 **** Fit      -0.115444
 **** Fit      -0.115558
 **** Fit      -0.115755
 **** Fit      -0.116036
 **** Fit      -0.116402
 **** Fit      -0.116853
 **** Fit      -0.117391
 **** Fit      -0.118017
 **** Fit      -0.118734
 **** Fit      -0.119547
 **** Fit      -0.120460
 **** Fit      -0.121480
 **** Fit      -0.122616
 **** Fit      -0.123878
 **** Fit      -0.125281
 **** Fit      -0.126841
 **** Fit      -0.128578
 **** Fit      -0.130518
 **** Fit      -0.132691
 **** Fit      -0.133043
 **** Fit      -0.130837
 **** Fit      -0.128867
 **** Fit      -0.127104
 **** Fit      -0.125521
 **** Fit      -0.124098
 **** Fit      -0.122819
 **** Fit      -0.121668
 **** Fit      -0.120634
 **** Fit      -0.119710
 **** Fit      -0.118887
 **** Fit      -0.118160
 **** Fit      -0.117526
 **** Fit      -0.116982
 **** Fit      -0.116525
 **** Fit      -0.116155
 **** Fit      -0.115870
 **** Fit      -0.115670
 **** Fit      -0.115554
 **** Fit      -0.115523
 **** Fit      -0.115576
 **** Fit      -0.115713
 **** Fit      -0.115935
 **** Fit      -0.116241
 **** Fit      -0.116633
 **** Fit      -0.117112
 **** Fit      -0.117679
 **** Fit      -0.118336
 **** Fit      -0.119086
 **** Fit      -0.119935
 **** Fit      -0.120886
 **** Fit      -0.121948
 **** Fit      -0.123131
 **** Fit      -0.124445
 **** Fit      -0.125907
 **** Fit      -0.127533
 **** Fit      -0.129347
 **** Fit      -0.131374
 **** Fit      -0.133645
 **** Fit      -0.132564
 **** Fit      -0.130402
 **** Fit      -0.128472
 **** Fit      -0.126743
 **** Fit      -0.125192
 **** Fit      -0.123800
 **** Fit      -0.122548
 **** Fit      -0.121425
 **** Fit      -0.120419
 **** Fit      -0.119522
 **** Fit      -0.118728
 **** Fit      -0.118031
 **** Fit      -0.117427
 **** Fit      -0.116915
 **** Fit      -0.116493
 **** Fit      -0.116159
 **** Fit      -0.115912
 **** Fit      -0.115752
 **** Fit      -0.115679
 **** Fit      -0.115693
 **** Fit      -0.115793
 **** Fit      -0.115980
 **** Fit      -0.116255
 **** Fit      -0.116617
 **** Fit      -0.117067
 **** Fit      -0.117608
 **** Fit      -0.118240
 **** Fit      -0.118967
 **** Fit      -0.119794
 **** Fit      -0.120724
 **** Fit      -0.121766
 **** Fit      -0.122928
 **** Fit      -0.124222
 **** Fit      -0.125663
 **** Fit      -0.127267
 **** Fit      -0.129057
 **** Fit      -0.131057
 **** Fit      -0.133298
 **** Fit      -0.134397
 **** Fit      -0.132040
 **** Fit      -0.129938
 **** Fit      -0.128059
 **** Fit      -0.126376
 **** Fit      -0.124866
 **** Fit      -0.123511
 **** Fit      -0.122295
 **** Fit      -0.121206
 **** Fit      -0.120233
 **** Fit      -0.119369
 **** Fit      -0.118607
 **** Fit      -0.117944
 **** Fit      -0.117375
 **** Fit      -0.116900
 **** Fit      -0.116515
 **** Fit      -0.116220
 **** Fit      -0.116015
 **** Fit      -0.115898
 **** Fit      -0.115871
 **** Fit      -0.115932
 **** Fit      -0.116081
 **** Fit      -0.116320
 **** Fit      -0.116649
 **** Fit      -0.117068
 **** Fit      -0.117578
 **** Fit      -0.118182
 **** Fit      -0.118882
 **** Fit      -0.119681
 **** Fit      -0.120586
 **** Fit      -0.121602
 **** Fit      -0.122737
 **** Fit      -0.124004
 **** Fit      -0.125415
 **** Fit      -0.126987
 **** Fit      -0.128741
 **** Fit      -0.130701
 **** Fit      -0.132895
 **** Fit      -0.133754
 **** Fit      -0.131483
 **** Fit      -0.129454
 **** Fit      -0.127638
 **** Fit      -0.126010
 **** Fit      -0.124549
 **** Fit      -0.123239
 **** Fit      -0.122065
 **** Fit      -0.121015
 **** Fit      -0.120080
 **** Fit      -0.119253
 **** Fit      -0.118529
 **** Fit      -0.117904
 **** Fit      -0.117374
 **** Fit      -0.116938
 **** Fit      -0.116594
 **** Fit      -0.116342
 **** Fit      -0.116180
 **** Fit      -0.116110
 **** Fit      -0.116130
 **** Fit      -0.116240
 **** Fit      -0.116441
 **** Fit      -0.116733
 **** Fit      -0.117117
 **** Fit      -0.117594
 **** Fit      -0.118165
 **** Fit      -0.118833
 **** Fit      -0.119602
 **** Fit      -0.120475
 **** Fit      -0.121459
 **** Fit      -0.122562
 **** Fit      -0.123794
 **** Fit      -0.125168
 **** Fit      -0.126700
 **** Fit      -0.128407
 **** Fit      -0.130313
 **** Fit      -0.132444
 **** Fit      -0.132962
 **** Fit      -0.130778
 **** Fit      -0.128824
 **** Fit      -0.127075
 **** Fit      -0.125507
 **** Fit      -0.124102
 **** Fit      -0.122844
 **** Fit      -0.121719
 **** Fit      -0.120718
 **** Fit      -0.119832
 **** Fit      -0.119055
 **** Fit      -0.118382
 **** Fit      -0.117810
 **** Fit      -0.117336
 **** Fit      -0.116959
 **** Fit      -0.116676
 **** Fit      -0.116489
 **** Fit      -0.116396
 **** Fit      -0.116398
 **** Fit      -0.116493
 **** Fit      -0.116683
 **** Fit      -0.116968
 **** Fit      -0.117348
 **** Fit      -0.117825
 **** Fit      -0.118400
 **** Fit      -0.119076
 **** Fit      -0.119856
 **** Fit      -0.120745
 **** Fit      -0.121750
 **** Fit      -0.122878
 **** Fit      -0.124140
 **** Fit      -0.125549
 **** Fit      -0.127122
 **** Fit      -0.128877
 **** Fit      -0.130837
 **** Fit      -0.133028
 **** Fit      -0.132152
 **** Fit      -0.130067
 **** Fit      -0.128199
 **** Fit      -0.126524
 **** Fit      -0.125024
 **** Fit      -0.123681
 **** Fit      -0.122481
 **** Fit      -0.121413
 **** Fit      -0.120467
 **** Fit      -0.119636
 **** Fit      -0.118914
 **** Fit      -0.118299
 **** Fit      -0.117786
 **** Fit      -0.117373
 **** Fit      -0.117060
 **** Fit      -0.116846
 **** Fit      -0.116729
 **** Fit      -0.116711
 **** Fit      -0.116790
 **** Fit      -0.116967
 **** Fit      -0.117243
 **** Fit      -0.117617
 **** Fit      -0.118092
 **** Fit      -0.118668
 **** Fit      -0.119349
 **** Fit      -0.120138
 **** Fit      -0.121040
 **** Fit      -0.122061
 **** Fit      -0.123209
 **** Fit      -0.124496
 **** Fit      -0.125935
 **** Fit      -0.127541
 **** Fit      -0.129333
 **** Fit      -0.131333
 **** Fit      -0.133564
 **** Fit      -0.133539
 **** Fit      -0.131340
 **** Fit      -0.129364
 **** Fit      -0.127589
 **** Fit      -0.125997
 **** Fit      -0.124571
 **** Fit      -0.123297
 **** Fit      -0.122161
 **** Fit      -0.121155
 **** Fit      -0.120269
 **** Fit      -0.119499
 **** Fit      -0.118839
 **** Fit      -0.118286
 **** Fit      -0.117838
 **** Fit      -0.117493
 **** Fit      -0.117250
 **** Fit      -0.117109
 **** Fit      -0.117069
 **** Fit      -0.117130
 **** Fit      -0.117293
 **** Fit      -0.117557
 **** Fit      -0.117924
 **** Fit      -0.118394
 **** Fit      -0.118970
 **** Fit      -0.119653
 **** Fit      -0.120447
 **** Fit      -0.121357
 **** Fit      -0.122391
 **** Fit      -0.123555
 **** Fit      -0.124860
 **** Fit      -0.126320
 **** Fit      -0.127949
 **** Fit      -0.129765
 **** Fit      -0.131786
 **** Fit      -0.134035
 **** Fit      -0.132514
 **** Fit      -0.130432
 **** Fit      -0.128558
 **** Fit      -0.126874
 **** Fit      -0.125365
 **** Fit      -0.124016
 **** Fit      -0.122816
 **** Fit      -0.121752
 **** Fit      -0.120818
 **** Fit      -0.120007
 **** Fit      -0.119313
 **** Fit      -0.118732
 **** Fit      -0.118263
 **** Fit      -0.117904
 **** Fit      -0.117653
 **** Fit      -0.117509
 **** Fit      -0.117474
 **** Fit      -0.117545
 **** Fit      -0.117724
 **** Fit      -0.118012
 **** Fit      -0.118408
 **** Fit      -0.118913
 **** Fit      -0.119531
 **** Fit      -0.120264
 **** Fit      -0.121116
 **** Fit      -0.122093
 **** Fit      -0.123201
 **** Fit      -0.124449
 **** Fit      -0.125850
 **** Fit      -0.127416
 **** Fit      -0.129161
 **** Fit      -0.131103
 **** Fit      -0.133258
 **** Fit      -0.133678
 **** Fit      -0.131515
 **** Fit      -0.129556
 **** Fit      -0.127789
 **** Fit      -0.126201
 **** Fit      -0.124781
 **** Fit      -0.123516
 **** Fit      -0.122395
 **** Fit      -0.121412
 **** Fit      -0.120558
 **** Fit      -0.119829
 **** Fit      -0.119221
 **** Fit      -0.118730
 **** Fit      -0.118356
 **** Fit      -0.118097
 **** Fit      -0.117952
 **** Fit      -0.117921
 **** Fit      -0.118004
 **** Fit      -0.118201
 **** Fit      -0.118512
 **** Fit      -0.118939
 **** Fit      -0.119483
 **** Fit      -0.120146
 **** Fit      -0.120932
 **** Fit      -0.121844
 **** Fit      -0.122889
 **** Fit      -0.124074
 **** Fit      -0.125408
 **** Fit      -0.126903
 **** Fit      -0.128571
 **** Fit      -0.130424
 **** Fit      -0.132475
 **** Fit      -0.132507
 **** Fit      -0.130466
 **** Fit      -0.128614
 **** Fit      -0.126945
 **** Fit      -0.125449
 **** Fit      -0.124118
 **** Fit      -0.122941
 **** Fit      -0.121911
 **** Fit      -0.121022
 **** Fit      -0.120267
 **** Fit      -0.119643
 **** Fit      -0.119148
 **** Fit      -0.118780
 **** Fit      -0.118537
 **** Fit      -0.118419
 **** Fit      -0.118426
 **** Fit      -0.118557
 **** Fit      -0.118814
 **** Fit      -0.119196
 **** Fit      -0.119705
 **** Fit      -0.120342
 **** Fit      -0.121112
 **** Fit      -0.122016
 **** Fit      -0.123062
 **** Fit      -0.124255
 **** Fit      -0.125603
 **** Fit      -0.127117
 **** Fit      -0.128806
 **** Fit      -0.130678
 **** Fit      -0.132740
 **** Fit      -0.131463
 **** Fit      -0.129569
 **** Fit      -0.127846
 **** Fit      -0.126292
 **** Fit      -0.124903
 **** Fit      -0.123672
 **** Fit      -0.122593
 **** Fit      -0.121660
 **** Fit      -0.120869
 **** Fit      -0.120216
 **** Fit      -0.119699
 **** Fit      -0.119317
 **** Fit      -0.119067
 **** Fit      -0.118950
 **** Fit      -0.118965
 **** Fit      -0.119113
 **** Fit      -0.119393
 **** Fit      -0.119807
 **** Fit      -0.120355
 **** Fit      -0.121039
 **** Fit      -0.121862
 **** Fit      -0.122828
 **** Fit      -0.123942
 **** Fit      -0.125209
 **** Fit      -0.126636
 **** Fit      -0.128228
 **** Fit      -0.129990
 **** Fit      -0.131923
 **** Fit      -0.130423
 **** Fit      -0.128651
 **** Fit      -0.127040
 **** Fit      -0.125592
 **** Fit      -0.124306
 **** Fit      -0.123179
 **** Fit      -0.122208
 **** Fit      -0.121390
 **** Fit      -0.120722
 **** Fit      -0.120202
 **** Fit      -0.119829
 **** Fit      -0.119602
 **** Fit      -0.119520
 **** Fit      -0.119585
 **** Fit      -0.119795
 **** Fit      -0.120151
 **** Fit      -0.120654
 **** Fit      -0.121304
 **** Fit      -0.122105
 **** Fit      -0.123058
 **** Fit      -0.124166
 **** Fit      -0.125433
 **** Fit      -0.126862
 **** Fit      -0.128454
 **** Fit      -0.130208
 **** Fit      -0.129396
 **** Fit      -0.127719
 **** Fit      -0.126202
 **** Fit      -0.124852
 **** Fit      -0.123673
 **** Fit      -0.122666
 **** Fit      -0.121828
 **** Fit      -0.121160
 **** Fit      -0.120661
 **** Fit      -0.120331
 **** Fit      -0.120168
 **** Fit      -0.120174
 **** Fit      -0.120347
 **** Fit      -0.120689
 **** Fit      -0.121199
 **** Fit      -0.121878
 **** Fit      -0.122727
 **** Fit      -0.123746
 **** Fit      -0.124936
 **** Fit      -0.126297
 **** Fit      -0.127825
 **** Fit      -0.129513
 **** Fit      -0.128540
 **** Fit      -0.126984
 **** Fit      -0.125586
 **** Fit      -0.124358
 **** Fit      -0.123308
 **** Fit      -0.122441
 **** Fit      -0.121759
 **** Fit      -0.121264
 **** Fit      -0.120955
 **** Fit      -0.120835
 **** Fit      -0.120902
 **** Fit      -0.121158
 **** Fit      -0.121601
 **** Fit      -0.122231
 **** Fit      -0.123046
 **** Fit      -0.124044
 **** Fit      -0.125223
 **** Fit      -0.126574
 **** Fit      -0.128088
 **** Fit      -0.129743
 **** Fit      -0.129314
 **** Fit      -0.127713
 **** Fit      -0.126252
 **** Fit      -0.124964
 **** Fit      -0.123867
 **** Fit      -0.122977
 **** Fit      -0.122301
 **** Fit      -0.121844
 **** Fit      -0.121609
 **** Fit      -0.121598
 **** Fit      -0.121811
 **** Fit      -0.122246
 **** Fit      -0.122901
 **** Fit      -0.123771
 **** Fit      -0.124847
 **** Fit      -0.126118
 **** Fit      -0.127563
 **** Fit      -0.129152
 **** Fit      -0.128514
 **** Fit      -0.126998
 **** Fit      -0.125641
 **** Fit      -0.124488
 **** Fit      -0.123571
 **** Fit      -0.122907
 **** Fit      -0.122509
 **** Fit      -0.122383
 **** Fit      -0.122532
 **** Fit      -0.122953
 **** Fit      -0.123639
 **** Fit      -0.124577
 **** Fit      -0.125749
 **** Fit      -0.127121
 **** Fit      -0.128648
 **** Fit      -0.127835
 **** Fit      -0.126406
 **** Fit      -0.125183
 **** Fit      -0.124230
 **** Fit      -0.123590
 **** Fit      -0.123288
 **** Fit      -0.123335
 **** Fit      -0.123729
 **** Fit      -0.124456
 **** Fit      -0.125486
 **** Fit      -0.126772
 **** Fit      -0.127284
 **** Fit      -0.125967
 **** Fit      -0.124964
 **** Fit      -0.124372
 **** Fit      -0.124242
 **** Fit      -0.124584
 **** Fit      -0.125371
 **** Fit      -0.126530
 **** Fit      -0.126873
 **** Fit      -0.125787
 **** Fit      -0.125303
 **** Fit      -0.125531
 **** Fit      -0.126420
 **** Fit      -0.126713
 **** Fit      -0.126583
 -----------------------------------------------------------------
 Leave Link  602 at Sun Mar 20 13:11:49 2016, MaxMem=  1073741824 cpu:         5.1
 (Enter /share/apps/gaussian/g09d01/intel/g09/l9999.exe)

 Test job not archived.
 1\1\GINC-COMPUTE-3-5\SP\RHF\6-31G(d)\N1O3(1-)\ROOT\20-Mar-2016\0\\#P g
 uess=read geom=allcheck SCF=tight HF/6-31G* Pop=MK IOp(6/33=2,6/41=10,
 6/42=17)\\Title: NO3, 2-\\-1,1\N,0,-16.645997066,19.8960051381,24.4532
 487137\O,0,-16.1379907164,19.9341702979,23.2961702783\O,0,-16.51723380
 89,20.8828166912,25.2330905858\O,0,-17.2827784138,18.8710078753,24.830
 49042\\Version=ES64L-G09RevD.01\State=1-A'\HF=-278.9062726\RMSD=8.580e
 -09\Dipole=0.0000188,-0.0000424,-0.0000908\Quadrupole=2.1815152,-1.015
 4269,-1.1660884,-1.8985078,1.728546,-0.8046399\PG=CS [SG(N1O3)]\\@


 HO!  SUCH BUGS AND GOBLINS IN MY LIFE!

                            -- HAMLET, ACT 5, SCENE 2
 Job cpu time:       0 days  0 hours  0 minutes 11.9 seconds.
 File lengths (MBytes):  RWF=      5 Int=      0 D2E=      0 Chk=      1 Scr=      1
 Normal termination of Gaussian 09 at Sun Mar 20 13:11:49 2016.
